LAMMPS (15 Sep 2022)
OMP_NUM_THREADS environment is not set. Defaulting to 1 thread. (src/comm.cpp:98)
  using 1 OpenMP thread(s) per MPI task
Loaded 1 plugins from C:\Users\Joseph\AppData\Local\LAMMPS 64-bit 15Sep2022\plugins
package omp 0
using multi-threaded neighbor list subroutines
package omp 12
set 12 OpenMP thread(s) per MPI task
using multi-threaded neighbor list subroutines
# kcal/mol=1.98720413e-3, kJ/mol=K*8.3144621e-3, thermochemical calorie = 4.184 J
# [real] mass = grams/mole, distance = Angstroms, time = femtoseconds, energy = Kcal/mole, velocity = Angstroms/femtosecond, force = Kcal/mole-Angstrom, torque = Kcal/mole, temperature = degrees K, pressure = atmospheres, dynamic viscosity = Poise, charge = multiple of electron charge (+1.0 is a proton), dipole = charge*Angstroms, electric field = volts/Angstrom, density = gram/cm^dim
# [metal] mass = grams/mole, distance = Angstroms, time = picoseconds, energy = eV, velocity = Angstroms/picosecond, force = eV/Angstrom, torque = eV, temperature = degrees K, pressure = bars, dynamic viscosity = Poise, charge = multiple of electron charge (+1.0 is a proton), dipole = charge*Angstroms, electric field = volts/Angstrom, density = gram/cm^dim
units real

boundary p p p
dielectric 1.0
atom_style full
pair_style lj/cut/tip4p/long 6 5 4 3 0.15 14
pair_modify mix arithmetic #tail yes
special_bonds lj/coul 0.0 0.0 0.50
bond_style harmonic
angle_style harmonic
dihedral_style opls

read_data topology.EtOHH2O.in
Reading data file ...
  orthogonal box = (-1.033501 -1.019999 -1.028499) to (23.9965 24.000001 24.0315)
  1 by 1 by 1 MPI processor grid
  reading atoms ...
  1528 atoms
  scanning bonds ...
  2 = max bonds/atom
  scanning angles ...
  1 = max angles/atom
  scanning dihedrals ...
  1 = max dihedrals/atom
  reading bonds ...
  1022 bonds
  reading angles ...
  516 angles
  reading dihedrals ...
  10 dihedrals
Finding 1-2 1-3 1-4 neighbors ...
  special bond factors lj:    0        0        0.5     
  special bond factors coul:  0        0        0.5     
     2 = max # of 1-2 neighbors
     1 = max # of 1-3 neighbors
     2 = max # of 1-4 neighbors
     3 = max # of special neighbors
  special bonds CPU = 0.001 seconds
  read_data CPU = 0.011 seconds
#read_dump movie.equil1 800000 x y z box yes purge no replace yes trim no add no scaled no format native
#write_restart restart.equil1
#quit
#read_restart restart.equil14

########################################
# pair/bond/angle/dihedral/improper_coeff, group, thermo must come *AFTER* simulation box is defined

#groups for solvents
group water type 5 6
1488 atoms in group water
group EtOH type 1 2 3 4
40 atoms in group EtOH


########################################
# timestep, thermo, neighbor, dump, region, kspace, fix shake/langevin, pair/bond/angle/dihedral/improper_coeff are *NOT* stored in restart files

### Setup output ###
thermo 100
thermo_style custom step temp etotal ke pe econserve epair emol ebond eangle edihed eimp evdwl ecoul elong etail press density
thermo_modify norm no flush no line multi

#dump_modify movie scale no

restart 5000 restart.1 restart.2

variable etotalc equal etotal
variable kec equal ke
variable tempc equal temp
variable pec equal pe
variable epairc equal epair
variable emolc equal emol
variable ebondc equal ebond
variable eanglec equal eangle
variable edihedc equal edihed
variable eimpc equal eimp
variable evdwlc equal evdwl
variable ecoulc equal ecoul
variable elongc equal elong
variable etailc equal etail
variable pressc equal press
variable volc equal vol
variable pxxc equal pxx
variable pyyc equal pyy
variable pzzc equal pzz
variable pxyc equal pxy
variable pxzc equal pxz
variable pyzc equal pyz


fix energy all ave/time 500 2 1000 v_etotalc v_kec v_tempc v_pec v_epairc v_emolc v_ebondc v_eanglec v_edihedc v_eimpc v_evdwlc v_ecoulc v_elongc v_etailc v_pressc v_volc v_pxxc v_pyyc v_pzzc v_pxyc v_pxzc v_pyzc mode scalar ave running file energy.dat

#fix NVE all nve #for troubleshooting
#fix NVT noAu nvt temp 300 300 100 tchain 1 tloop 1 #activate once troubleshooting is done

fix Rigwat water shake 0.0001 20 100 b 4 a 3
Finding SHAKE clusters ...
       0 = # of size 2 clusters
       0 = # of size 3 clusters
       0 = # of size 4 clusters
     496 = # of frozen angles
  find clusters CPU = 0.000 seconds

fix NPT all npt temp 298 298 100 tchain 1 tloop 1 z 1 1 1000 dilate water

#compute WaterMSD water msd com no
#fix MSDOutput water ave/time 1 1 500 c_WaterMSD mode vector ave one file WaterMSD.dat

#compute CO2MSD CO2 msd com no
#fix MSDOutput water ave/time 1 1 500 c_CO2MSD mode vector ave one file CO2msd.dat

#compute RDF all rdf 280 22 *
#variable WRDF equal c_RDF
#fix RDFOutput all ave/time 500 1 500 v_WRDF ave running file rdf.dat mode scalar overwrite

#compute RDF all rdf 280 3 1 3 2 3 3 3 4 3 5 3 6 4 1 4 2 4 4 4 5 4 6 5 1 5 2 5 5 5 6 6 1 6 2 6 6

### Setup additional simulation details ###
kspace_style pppm/tip4p 1e-6
#kspace_modify mesh 40 36 40 order 5

velocity all create 300 90123846

neighbor 2.0 bin
neigh_modify one 9999 delay 10 every 1 check yes once no

dump movie all custom 100 movie.lammpstrj id mol type xu yu zu
#dump mydump all atom 500 atom.lammpstrj

min_style sd
minimize 1.0e-4 1.0e-6 100 1000
Switching to 'neigh_modify every 1 delay 0 check yes' setting during minimization
PPPM initialization ...
  extracting TIP4P info from pair style
  using 12-bit tables for long-range coulomb (src/kspace.cpp:342)
  G vector (1/distance) = 0.2449204
  grid = 27 27 27
  stencil order = 5
  estimated absolute RMS force accuracy = 0.00032695169
  estimated relative force accuracy = 9.8460532e-07
  using double precision FFTW3
  3d grid and FFT values/proc = 39304 19683
Generated 15 of 15 mixed pair_coeff terms from arithmetic mixing rule
Last active /omp style is kspace_style pppm/tip4p/omp
WARNING: Using fix shake with minimization.
  Substituting constraints with harmonic restraint forces using kbond=1987 (src/RIGID/fix_shake.cpp:358)
Neighbor list info ...
  update: every = 1 steps, delay = 0 steps, check = yes
  max neighbors/atom: 9999, page size: 100000
  master list distance cutoff = 16.3
  ghost atom cutoff = 16.3
  binsize = 8.15, bins = 4 4 4
  1 neighbor lists, perpetual/occasional/extra = 1 0 0
  (1) pair lj/cut/tip4p/long/omp, perpetual
      attributes: half, newton on, omp
      pair build: half/bin/newton/omp
      stencil: half/bin/3d
      bin: standard
Per MPI rank memory allocation (min/avg/max) = 44.21 | 44.21 | 44.21 Mbytes
------------ Step              0 ----- CPU =            0 (sec) -------------
Step     =              0 Temp     =       300.0000 TotEng   =    144337.9600 
KinEng   =       921.9645 PotEng   =    143415.9954 Econserve =    144337.9600 
E_pair   =     10323.5162 E_mol    =       103.7502 E_bond   =       103.5880 
E_angle  =         0.1621 E_dihed  =         0.0000 E_impro  =         0.0000 
E_vdwl   =     10134.6577 E_coul   =     37212.9289 E_long   =    -37024.0704 
E_tail   =         0.0000 Press    =  -1054197.8877 Density  =         0.9942
SHAKE stats (type/ave/delta/count) on step 100
Bond:   4   0.958207  0.234771         992
Angle:  3   103.614   2.81768          496
------------ Step            100 ----- CPU =     1.101759 (sec) -------------
Step     =            100 Temp     =       300.0000 TotEng   =     -2050.4377 
KinEng   =       921.9645 PotEng   =     -2972.4023 Econserve =     -2050.4377 
E_pair   =     -3036.2785 E_mol    =         7.8410 E_bond   =         2.4413 
E_angle  =         2.5658 E_dihed  =         2.8339 E_impro  =         0.0000 
E_vdwl   =       824.6996 E_coul   =     33372.6855 E_long   =    -37233.6636 
E_tail   =         0.0000 Press    =     23847.3620 Density  =         0.9942
SHAKE stats (type/ave/delta/count) on step 100
Bond:   4   0.961137  0.0191191        992
Angle:  3   103.702   2.75656          496
Loop time of 1.10184 on 12 procs for 100 steps with 1528 atoms

561.6% CPU use with 1 MPI tasks x 12 OpenMP threads

Minimization stats:
  Stopping criterion = max iterations
  Energy initial, next-to-last, final = 
      143415.995418532  -2964.64702520578  -2972.40229459542
  Force two-norm initial, final = 56985.725 385.07594
  Force max component initial, final = 1822.285 44.465887
  Final line search alpha, max atom move = 0.0076870026 0.34180939
  Iterations, force evaluations = 100 198

MPI task timing breakdown:
Section |  min time  |  avg time  |  max time  |%varavg| %total
---------------------------------------------------------------
Pair    | 0.6607     | 0.6607     | 0.6607     |   0.0 | 59.96
Bond    | 0.037573   | 0.037573   | 0.037573   |   0.0 |  3.41
Kspace  | 0.36238    | 0.36238    | 0.36238    |   0.0 | 32.89
Neigh   | 0.002349   | 0.002349   | 0.002349   |   0.0 |  0.21
Comm    | 0.009629   | 0.009629   | 0.009629   |   0.0 |  0.87
Output  | 0.001592   | 0.001592   | 0.001592   |   0.0 |  0.14
Modify  | 0.024673   | 0.024673   | 0.024673   |   0.0 |  2.24
Other   |            | 0.002948   |            |       |  0.27

Nlocal:           1528 ave        1528 max        1528 min
Histogram: 1 0 0 0 0 0 0 0 0 0
Nghost:          17961 ave       17961 max       17961 min
Histogram: 1 0 0 0 0 0 0 0 0 0
Neighs:    1.35321e+06 ave 1.35321e+06 max 1.35321e+06 min
Histogram: 1 0 0 0 0 0 0 0 0 0

Total # of neighbors = 1353212
Ave neighs/atom = 885.60995
Ave special neighs/atom = 2.026178
Neighbor list builds = 1
Dangerous builds = 0

run_style verlet

timestep 1.0

run 0
PPPM initialization ...
  extracting TIP4P info from pair style
  using 12-bit tables for long-range coulomb (src/kspace.cpp:342)
  G vector (1/distance) = 0.2449204
  grid = 27 27 27
  stencil order = 5
  estimated absolute RMS force accuracy = 0.00032695169
  estimated relative force accuracy = 9.8460532e-07
  using double precision FFTW3
  3d grid and FFT values/proc = 39304 19683
Generated 15 of 15 mixed pair_coeff terms from arithmetic mixing rule
Last active /omp style is kspace_style pppm/tip4p/omp
SHAKE stats (type/ave/delta/count) on step 100
Bond:   4   0.961137  0.0191191        992
Angle:  3   103.702   2.75656          496
Per MPI rank memory allocation (min/avg/max) = 41.96 | 41.96 | 41.96 Mbytes
------------ Step            100 ----- CPU =            0 (sec) -------------
Step     =            100 Temp     =       300.0000 TotEng   =     -2106.4729 
KinEng   =       921.9645 PotEng   =     -3028.4374 Econserve =     -2106.7017 
E_pair   =     -3036.2785 E_mol    =         7.8410 E_bond   =         2.4413 
E_angle  =         2.5658 E_dihed  =         2.8339 E_impro  =         0.0000 
E_vdwl   =       824.6996 E_coul   =     33372.6855 E_long   =    -37233.6636 
E_tail   =         0.0000 Press    =     14883.7554 Density  =         0.9942
Loop time of 0 on 12 procs for 0 steps with 1528 atoms

0.0% CPU use with 1 MPI tasks x 12 OpenMP threads

MPI task timing breakdown:
Section |  min time  |  avg time  |  max time  |%varavg| %total
---------------------------------------------------------------
Pair    | 0          | 0          | 0          |   0.0 |  0.00
Bond    | 0          | 0          | 0          |   0.0 |  0.00
Kspace  | 0          | 0          | 0          |   0.0 |  0.00
Neigh   | 0          | 0          | 0          |   0.0 |  0.00
Comm    | 0          | 0          | 0          |   0.0 |  0.00
Output  | 0          | 0          | 0          |   0.0 |  0.00
Modify  | 0          | 0          | 0          |   0.0 |  0.00
Other   |            | 0          |            |       |  0.00

Nlocal:           1528 ave        1528 max        1528 min
Histogram: 1 0 0 0 0 0 0 0 0 0
Nghost:          17930 ave       17930 max       17930 min
Histogram: 1 0 0 0 0 0 0 0 0 0
Neighs:    1.35291e+06 ave 1.35291e+06 max 1.35291e+06 min
Histogram: 1 0 0 0 0 0 0 0 0 0

Total # of neighbors = 1352907
Ave neighs/atom = 885.41034
Ave special neighs/atom = 2.026178
Neighbor list builds = 0
Dangerous builds = 0

velocity all scale 300

run 10000
PPPM initialization ...
  extracting TIP4P info from pair style
  using 12-bit tables for long-range coulomb (src/kspace.cpp:342)
  G vector (1/distance) = 0.2449204
  grid = 27 27 27
  stencil order = 5
  estimated absolute RMS force accuracy = 0.00032695169
  estimated relative force accuracy = 9.8460532e-07
  using double precision FFTW3
  3d grid and FFT values/proc = 39304 19683
Generated 15 of 15 mixed pair_coeff terms from arithmetic mixing rule
Last active /omp style is kspace_style pppm/tip4p/omp
SHAKE stats (type/ave/delta/count) on step 100
Bond:   4   0.9572    7.40373e-07      992
Angle:  3   104.52    0.000110364      496
Per MPI rank memory allocation (min/avg/max) = 41.96 | 41.96 | 41.96 Mbytes
------------ Step            100 ----- CPU =            0 (sec) -------------
Step     =            100 Temp     =       300.0000 TotEng   =     -2009.3900 
KinEng   =       921.9645 PotEng   =     -2931.3545 Econserve =     -2009.6188 
E_pair   =     -2939.1956 E_mol    =         7.8410 E_bond   =         2.4413 
E_angle  =         2.5658 E_dihed  =         2.8339 E_impro  =         0.0000 
E_vdwl   =       826.4911 E_coul   =     33467.6933 E_long   =    -37233.3800 
E_tail   =         0.0000 Press    =     15221.3036 Density  =         0.9942
SHAKE stats (type/ave/delta/count) on step 200
Bond:   4   0.95727   0.000232047      992
Angle:  3   104.52    0.0252426        496
------------ Step            200 ----- CPU =     0.785355 (sec) -------------
Step     =            200 Temp     =       432.8025 TotEng   =     -2704.5244 
KinEng   =      1330.0953 PotEng   =     -4034.6197 Econserve =     -2308.7063 
E_pair   =     -4052.3209 E_mol    =        17.7012 E_bond   =         6.1967 
E_angle  =         6.1593 E_dihed  =         5.3452 E_impro  =         0.0000 
E_vdwl   =       698.5126 E_coul   =     32493.0985 E_long   =    -37243.9320 
E_tail   =         0.0000 Press    =      5053.4128 Density  =         0.9801
SHAKE stats (type/ave/delta/count) on step 300
Bond:   4   0.95724   0.000147796      992
Angle:  3   104.52    0.0146659        496
------------ Step            300 ----- CPU =     1.568494 (sec) -------------
Step     =            300 Temp     =       264.9557 TotEng   =     -3716.8932 
KinEng   =       814.2660 PotEng   =     -4531.1592 Econserve =     -2310.1908 
E_pair   =     -4542.3619 E_mol    =        11.2027 E_bond   =         5.2876 
E_angle  =         2.0183 E_dihed  =         3.8968 E_impro  =         0.0000 
E_vdwl   =       504.9505 E_coul   =     32202.8269 E_long   =    -37250.1394 
E_tail   =         0.0000 Press    =     -1842.4158 Density  =         0.9618
SHAKE stats (type/ave/delta/count) on step 400
Bond:   4   0.957203  1.69671e-05      992
Angle:  3   104.52    0.00114614       496
------------ Step            400 ----- CPU =     2.325364 (sec) -------------
Step     =            400 Temp     =       206.3164 TotEng   =     -4271.5675 
KinEng   =       634.0546 PotEng   =     -4905.6221 Econserve =     -2310.3460 
E_pair   =     -4913.8259 E_mol    =         8.2039 E_bond   =         3.5321 
E_angle  =         1.5683 E_dihed  =         3.1035 E_impro  =         0.0000 
E_vdwl   =       652.4569 E_coul   =     31689.2241 E_long   =    -37255.5069 
E_tail   =         0.0000 Press    =     -2292.3976 Density  =         0.9560
SHAKE stats (type/ave/delta/count) on step 500
Bond:   4   0.957187  4.04223e-05      992
Angle:  3   104.52    0.0046225        496
------------ Step            500 ----- CPU =     3.096012 (sec) -------------
Step     =            500 Temp     =       223.2634 TotEng   =     -4419.1164 
KinEng   =       686.1363 PotEng   =     -5105.2527 Econserve =     -2310.2681 
E_pair   =     -5113.9689 E_mol    =         8.7163 E_bond   =         3.7784 
E_angle  =         2.8240 E_dihed  =         2.1139 E_impro  =         0.0000 
E_vdwl   =       788.4700 E_coul   =     31352.1351 E_long   =    -37254.5741 
E_tail   =         0.0000 Press    =     -1714.6667 Density  =         0.9576
SHAKE stats (type/ave/delta/count) on step 600
Bond:   4   0.957183  5.83376e-05      992
Angle:  3   104.52    0.00649386       496
------------ Step            600 ----- CPU =     3.866355 (sec) -------------
Step     =            600 Temp     =       277.4473 TotEng   =     -4227.2877 
KinEng   =       852.6554 PotEng   =     -5079.9431 Econserve =     -2309.8649 
E_pair   =     -5091.9592 E_mol    =        12.0162 E_bond   =         4.8670 
E_angle  =         4.2980 E_dihed  =         2.8512 E_impro  =         0.0000 
E_vdwl   =       902.1825 E_coul   =     31260.8107 E_long   =    -37254.9524 
E_tail   =         0.0000 Press    =        -4.5469 Density  =         0.9632
SHAKE stats (type/ave/delta/count) on step 700
Bond:   4   0.957188  4.32245e-05      992
Angle:  3   104.52    0.00461847       496
------------ Step            700 ----- CPU =     4.633987 (sec) -------------
Step     =            700 Temp     =       342.3248 TotEng   =     -3845.5977 
KinEng   =      1052.0377 PotEng   =     -4897.6354 Econserve =     -2309.4210 
E_pair   =     -4908.8936 E_mol    =        11.2582 E_bond   =         5.2875 
E_angle  =         2.6514 E_dihed  =         3.3193 E_impro  =         0.0000 
E_vdwl   =       805.0898 E_coul   =     31541.7191 E_long   =    -37255.7025 
E_tail   =         0.0000 Press    =       270.9892 Density  =         0.9676
SHAKE stats (type/ave/delta/count) on step 800
Bond:   4   0.957194  1.85635e-05      992
Angle:  3   104.52    0.00209392       496
------------ Step            800 ----- CPU =     5.413797 (sec) -------------
Step     =            800 Temp     =       342.3988 TotEng   =     -3646.2248 
KinEng   =      1052.2651 PotEng   =     -4698.4899 Econserve =     -2309.1533 
E_pair   =     -4715.6083 E_mol    =        17.1184 E_bond   =         6.2132 
E_angle  =         5.2619 E_dihed  =         5.6432 E_impro  =         0.0000 
E_vdwl   =       805.5849 E_coul   =     31732.2826 E_long   =    -37253.4758 
E_tail   =         0.0000 Press    =      1233.2355 Density  =         0.9707
SHAKE stats (type/ave/delta/count) on step 900
Bond:   4   0.957198  6.25509e-06      992
Angle:  3   104.52    0.000658351      496
------------ Step            900 ----- CPU =     6.199482 (sec) -------------
Step     =            900 Temp     =       311.9315 TotEng   =     -3766.9306 
KinEng   =       958.6326 PotEng   =     -4725.5632 Econserve =     -2309.4828 
E_pair   =     -4738.1863 E_mol    =        12.6231 E_bond   =         3.6461 
E_angle  =         5.4931 E_dihed  =         3.4839 E_impro  =         0.0000 
E_vdwl   =       741.8594 E_coul   =     31776.2282 E_long   =    -37256.2740 
E_tail   =         0.0000 Press    =       -62.9364 Density  =         0.9716
SHAKE stats (type/ave/delta/count) on step 1000
Bond:   4   0.957194  1.79568e-05      992
Angle:  3   104.52    0.00193379       496
------------ Step           1000 ----- CPU =     6.974023 (sec) -------------
Step     =           1000 Temp     =       289.5063 TotEng   =     -3963.1019 
KinEng   =       889.7151 PotEng   =     -4852.8170 Econserve =     -2309.5076 
E_pair   =     -4865.8338 E_mol    =        13.0168 E_bond   =         4.9466 
E_angle  =         3.5922 E_dihed  =         4.4780 E_impro  =         0.0000 
E_vdwl   =       722.8514 E_coul   =     31667.5113 E_long   =    -37256.1965 
E_tail   =         0.0000 Press    =     -1036.2842 Density  =         0.9723
SHAKE stats (type/ave/delta/count) on step 1100
Bond:   4   0.957187  3.89925e-05      992
Angle:  3   104.52    0.00443468       496
------------ Step           1100 ----- CPU =     7.739169 (sec) -------------
Step     =           1100 Temp     =       274.7351 TotEng   =     -4083.7268 
KinEng   =       844.3202 PotEng   =     -4928.0470 Econserve =     -2309.5130 
E_pair   =     -4942.8813 E_mol    =        14.8344 E_bond   =         4.4263 
E_angle  =         5.6554 E_dihed  =         4.7527 E_impro  =         0.0000 
E_vdwl   =       776.2258 E_coul   =     31536.8071 E_long   =    -37255.9142 
E_tail   =         0.0000 Press    =      -593.1875 Density  =         0.9752
SHAKE stats (type/ave/delta/count) on step 1200
Bond:   4   0.957187  4.31038e-05      992
Angle:  3   104.52    0.00492636       496
------------ Step           1200 ----- CPU =     8.521189 (sec) -------------
Step     =           1200 Temp     =       294.4482 TotEng   =     -4072.6979 
KinEng   =       904.9028 PotEng   =     -4977.6007 Econserve =     -2309.4405 
E_pair   =     -4992.8408 E_mol    =        15.2401 E_bond   =         5.7728 
E_angle  =         5.3017 E_dihed  =         4.1656 E_impro  =         0.0000 
E_vdwl   =       823.4683 E_coul   =     31437.9936 E_long   =    -37254.3028 
E_tail   =         0.0000 Press    =      -360.7939 Density  =         0.9793
SHAKE stats (type/ave/delta/count) on step 1300
Bond:   4   0.957187  4.13744e-05      992
Angle:  3   104.52    0.00461159       496
------------ Step           1300 ----- CPU =     9.285463 (sec) -------------
Step     =           1300 Temp     =       309.2057 TotEng   =     -3996.1916 
KinEng   =       950.2557 PotEng   =     -4946.4473 Econserve =     -2309.2624 
E_pair   =     -4962.7678 E_mol    =        16.3205 E_bond   =         5.3697 
E_angle  =         6.1849 E_dihed  =         4.7659 E_impro  =         0.0000 
E_vdwl   =       821.6809 E_coul   =     31470.9429 E_long   =    -37255.3916 
E_tail   =         0.0000 Press    =       -31.2449 Density  =         0.9834
SHAKE stats (type/ave/delta/count) on step 1400
Bond:   4   0.95719   3.17555e-05      992
Angle:  3   104.52    0.00358136       496
------------ Step           1400 ----- CPU =     10.08108 (sec) -------------
Step     =           1400 Temp     =       306.1666 TotEng   =     -3939.4129 
KinEng   =       940.9159 PotEng   =     -4880.3288 Econserve =     -2309.2111 
E_pair   =     -4896.6403 E_mol    =        16.3115 E_bond   =         4.5567 
E_angle  =         6.6822 E_dihed  =         5.0726 E_impro  =         0.0000 
E_vdwl   =       847.2547 E_coul   =     31508.0295 E_long   =    -37251.9244 
E_tail   =         0.0000 Press    =       622.5555 Density  =         0.9872
SHAKE stats (type/ave/delta/count) on step 1500
Bond:   4   0.957193  2.14671e-05      992
Angle:  3   104.52    0.0023848        496
------------ Step           1500 ----- CPU =     10.86224 (sec) -------------
Step     =           1500 Temp     =       316.1714 TotEng   =     -3946.7046 
KinEng   =       971.6627 PotEng   =     -4918.3673 Econserve =     -2309.4472 
E_pair   =     -4935.2893 E_mol    =        16.9219 E_bond   =         5.5628 
E_angle  =         5.6522 E_dihed  =         5.7069 E_impro  =         0.0000 
E_vdwl   =       841.7125 E_coul   =     31477.0596 E_long   =    -37254.0614 
E_tail   =         0.0000 Press    =       489.7222 Density  =         0.9898
SHAKE stats (type/ave/delta/count) on step 1600
Bond:   4   0.957197  1.18229e-05      992
Angle:  3   104.52    0.00119314       496
------------ Step           1600 ----- CPU =      11.6383 (sec) -------------
Step     =           1600 Temp     =       292.7360 TotEng   =     -4017.7607 
KinEng   =       899.6408 PotEng   =     -4917.4015 Econserve =     -2309.3121 
E_pair   =     -4937.6703 E_mol    =        20.2688 E_bond   =         6.7060 
E_angle  =         7.1592 E_dihed  =         6.4036 E_impro  =         0.0000 
E_vdwl   =       860.7806 E_coul   =     31455.1912 E_long   =    -37253.6422 
E_tail   =         0.0000 Press    =       637.6157 Density  =         0.9913
SHAKE stats (type/ave/delta/count) on step 1700
Bond:   4   0.957197  1.14464e-05      992
Angle:  3   104.52    0.00129014       496
------------ Step           1700 ----- CPU =     12.43528 (sec) -------------
Step     =           1700 Temp     =       292.5728 TotEng   =     -4085.4315 
KinEng   =       899.1391 PotEng   =     -4984.5706 Econserve =     -2309.5061 
E_pair   =     -5000.1601 E_mol    =        15.5895 E_bond   =         4.2757 
E_angle  =         5.5493 E_dihed  =         5.7645 E_impro  =         0.0000 
E_vdwl   =       823.7513 E_coul   =     31431.4433 E_long   =    -37255.3547 
E_tail   =         0.0000 Press    =      -289.0576 Density  =         0.9921
SHAKE stats (type/ave/delta/count) on step 1800
Bond:   4   0.957191  2.81052e-05      992
Angle:  3   104.52    0.00317425       496
------------ Step           1800 ----- CPU =     13.23841 (sec) -------------
Step     =           1800 Temp     =       286.8481 TotEng   =     -4102.5312 
KinEng   =       881.5458 PotEng   =     -4984.0770 Econserve =     -2309.2962 
E_pair   =     -5000.4301 E_mol    =        16.3531 E_bond   =         3.6850 
E_angle  =         6.8006 E_dihed  =         5.8675 E_impro  =         0.0000 
E_vdwl   =       872.0001 E_coul   =     31381.8453 E_long   =    -37254.2755 
E_tail   =         0.0000 Press    =       565.7008 Density  =         0.9940
SHAKE stats (type/ave/delta/count) on step 1900
Bond:   4   0.957199  4.81119e-06      992
Angle:  3   104.52    0.000450589      496
------------ Step           1900 ----- CPU =     14.07736 (sec) -------------
Step     =           1900 Temp     =       299.8697 TotEng   =     -4076.8854 
KinEng   =       921.5641 PotEng   =     -4998.4495 Econserve =     -2309.4029 
E_pair   =     -5017.5375 E_mol    =        19.0880 E_bond   =         5.7694 
E_angle  =         7.5180 E_dihed  =         5.8006 E_impro  =         0.0000 
E_vdwl   =       868.8130 E_coul   =     31366.8969 E_long   =    -37253.2474 
E_tail   =         0.0000 Press    =       467.3874 Density  =         0.9955
SHAKE stats (type/ave/delta/count) on step 2000
Bond:   4   0.957205  1.45873e-05      992
Angle:  3   104.52    0.00169424       496
------------ Step           2000 ----- CPU =      14.9454 (sec) -------------
Step     =           2000 Temp     =       284.8582 TotEng   =     -4055.2430 
KinEng   =       875.4306 PotEng   =     -4930.6735 Econserve =     -2309.3999 
E_pair   =     -4950.1259 E_mol    =        19.4523 E_bond   =         6.5015 
E_angle  =         7.3458 E_dihed  =         5.6050 E_impro  =         0.0000 
E_vdwl   =       887.9126 E_coul   =     31415.6382 E_long   =    -37253.6766 
E_tail   =         0.0000 Press    =      1075.7459 Density  =         0.9949
SHAKE stats (type/ave/delta/count) on step 2100
Bond:   4   0.957212  3.49927e-05      992
Angle:  3   104.52    0.00406062       496
------------ Step           2100 ----- CPU =      15.7553 (sec) -------------
Step     =           2100 Temp     =       301.4778 TotEng   =     -4000.6425 
KinEng   =       926.5060 PotEng   =     -4927.1485 Econserve =     -2309.8457 
E_pair   =     -4941.9972 E_mol    =        14.8487 E_bond   =         4.3688 
E_angle  =         4.9310 E_dihed  =         5.5488 E_impro  =         0.0000 
E_vdwl   =       851.6255 E_coul   =     31460.4355 E_long   =    -37254.0581 
E_tail   =         0.0000 Press    =       787.2917 Density  =         0.9924
SHAKE stats (type/ave/delta/count) on step 2200
Bond:   4   0.957215  4.56096e-05      992
Angle:  3   104.52    0.00517797       496
------------ Step           2200 ----- CPU =     16.55483 (sec) -------------
Step     =           2200 Temp     =       310.3272 TotEng   =     -3967.4983 
KinEng   =       953.7022 PotEng   =     -4921.2006 Econserve =     -2310.2579 
E_pair   =     -4937.1759 E_mol    =        15.9753 E_bond   =         7.0766 
E_angle  =         3.0877 E_dihed  =         5.8111 E_impro  =         0.0000 
E_vdwl   =       837.1259 E_coul   =     31477.3068 E_long   =    -37251.6086 
E_tail   =         0.0000 Press    =       592.3016 Density  =         0.9878
SHAKE stats (type/ave/delta/count) on step 2300
Bond:   4   0.957212  3.71879e-05      992
Angle:  3   104.52    0.00422355       496
------------ Step           2300 ----- CPU =      17.3642 (sec) -------------
Step     =           2300 Temp     =       302.0505 TotEng   =     -4003.8867 
KinEng   =       928.2663 PotEng   =     -4932.1531 Econserve =     -2309.6715 
E_pair   =     -4947.1200 E_mol    =        14.9669 E_bond   =         3.8241 
E_angle  =         4.1811 E_dihed  =         6.9617 E_impro  =         0.0000 
E_vdwl   =       804.2379 E_coul   =     31504.7113 E_long   =    -37256.0692 
E_tail   =         0.0000 Press    =      -225.8244 Density  =         0.9838
SHAKE stats (type/ave/delta/count) on step 2400
Bond:   4   0.957206  1.80345e-05      992
Angle:  3   104.52    0.00200824       496
------------ Step           2400 ----- CPU =     18.14011 (sec) -------------
Step     =           2400 Temp     =       291.8316 TotEng   =     -4052.2519 
KinEng   =       896.8612 PotEng   =     -4949.1131 Econserve =     -2309.6028 
E_pair   =     -4968.4607 E_mol    =        19.3476 E_bond   =         6.0397 
E_angle  =         6.5153 E_dihed  =         6.7925 E_impro  =         0.0000 
E_vdwl   =       801.5003 E_coul   =     31483.8437 E_long   =    -37253.8047 
E_tail   =         0.0000 Press    =      -642.6070 Density  =         0.9811
SHAKE stats (type/ave/delta/count) on step 2500
Bond:   4   0.9572    1.53319e-06      992
Angle:  3   104.52    0.000132308      496
------------ Step           2500 ----- CPU =     18.92936 (sec) -------------
Step     =           2500 Temp     =       289.1196 TotEng   =     -4068.0663 
KinEng   =       888.5267 PotEng   =     -4956.5930 Econserve =     -2309.5558 
E_pair   =     -4972.4844 E_mol    =        15.8914 E_bond   =         5.2125 
E_angle  =         6.4231 E_dihed  =         4.2559 E_impro  =         0.0000 
E_vdwl   =       821.7511 E_coul   =     31458.5186 E_long   =    -37252.7541 
E_tail   =         0.0000 Press    =      -318.3675 Density  =         0.9805
SHAKE stats (type/ave/delta/count) on step 2600
Bond:   4   0.95719   3.31314e-05      992
Angle:  3   104.52    0.00371997       496
------------ Step           2600 ----- CPU =     19.69536 (sec) -------------
Step     =           2600 Temp     =       298.2923 TotEng   =     -4047.0224 
KinEng   =       916.7164 PotEng   =     -4963.7387 Econserve =     -2309.1727 
E_pair   =     -4978.8029 E_mol    =        15.0642 E_bond   =         4.5178 
E_angle  =         5.4389 E_dihed  =         5.1075 E_impro  =         0.0000 
E_vdwl   =       805.5041 E_coul   =     31469.9778 E_long   =    -37254.2848 
E_tail   =         0.0000 Press    =      -364.1641 Density  =         0.9824
SHAKE stats (type/ave/delta/count) on step 2700
Bond:   4   0.957193  2.32534e-05      992
Angle:  3   104.52    0.00263541       496
------------ Step           2700 ----- CPU =      20.4894 (sec) -------------
Step     =           2700 Temp     =       315.9064 TotEng   =     -4024.5502 
KinEng   =       970.8484 PotEng   =     -4995.3986 Econserve =     -2309.2097 
E_pair   =     -5008.6497 E_mol    =        13.2511 E_bond   =         5.0158 
E_angle  =         2.7584 E_dihed  =         5.4769 E_impro  =         0.0000 
E_vdwl   =       882.6787 E_coul   =     31364.4793 E_long   =    -37255.8077 
E_tail   =         0.0000 Press    =       648.1452 Density  =         0.9855
SHAKE stats (type/ave/delta/count) on step 2800
Bond:   4   0.9572    2.07945e-06      992
Angle:  3   104.52    0.000154482      496
------------ Step           2800 ----- CPU =     21.36896 (sec) -------------
Step     =           2800 Temp     =       299.6479 TotEng   =     -4058.2553 
KinEng   =       920.8826 PotEng   =     -4979.1379 Econserve =     -2309.3756 
E_pair   =     -4996.1917 E_mol    =        17.0538 E_bond   =         6.1433 
E_angle  =         7.6568 E_dihed  =         3.2537 E_impro  =         0.0000 
E_vdwl   =       878.0218 E_coul   =     31379.4192 E_long   =    -37253.6327 
E_tail   =         0.0000 Press    =       686.6288 Density  =         0.9868
SHAKE stats (type/ave/delta/count) on step 2900
Bond:   4   0.957209  2.61447e-05      992
Angle:  3   104.52    0.00290446       496
------------ Step           2900 ----- CPU =     22.16578 (sec) -------------
Step     =           2900 Temp     =       299.2073 TotEng   =     -4109.9496 
KinEng   =       919.5284 PotEng   =     -5029.4780 Econserve =     -2309.7490 
E_pair   =     -5045.3227 E_mol    =        15.8447 E_bond   =         4.7372 
E_angle  =         6.5274 E_dihed  =         4.5801 E_impro  =         0.0000 
E_vdwl   =       941.4314 E_coul   =     31265.2323 E_long   =    -37251.9863 
E_tail   =         0.0000 Press    =      1235.4488 Density  =         0.9856
SHAKE stats (type/ave/delta/count) on step 3000
Bond:   4   0.95721   3.1455e-05       992
Angle:  3   104.52    0.00356804       496
------------ Step           3000 ----- CPU =     22.97377 (sec) -------------
Step     =           3000 Temp     =       287.2817 TotEng   =     -4146.2442 
KinEng   =       882.8785 PotEng   =     -5029.1227 Econserve =     -2309.1965 
E_pair   =     -5042.4514 E_mol    =        13.3287 E_bond   =         5.4586 
E_angle  =         2.3983 E_dihed  =         5.4718 E_impro  =         0.0000 
E_vdwl   =       905.5158 E_coul   =     31303.3955 E_long   =    -37251.3627 
E_tail   =         0.0000 Press    =       492.7495 Density  =         0.9828
SHAKE stats (type/ave/delta/count) on step 3100
Bond:   4   0.95721   2.81294e-05      992
Angle:  3   104.52    0.00322911       496
------------ Step           3100 ----- CPU =     23.78364 (sec) -------------
Step     =           3100 Temp     =       286.3862 TotEng   =     -4130.2992 
KinEng   =       880.1265 PotEng   =     -5010.4257 Econserve =     -2309.1096 
E_pair   =     -5023.5899 E_mol    =        13.1642 E_bond   =         5.3229 
E_angle  =         2.6602 E_dihed  =         5.1811 E_impro  =         0.0000 
E_vdwl   =       827.0270 E_coul   =     31403.0107 E_long   =    -37253.6276 
E_tail   =         0.0000 Press    =      -375.1893 Density  =         0.9798
SHAKE stats (type/ave/delta/count) on step 3200
Bond:   4   0.957202  6.2176e-06       992
Angle:  3   104.52    0.000654995      496
------------ Step           3200 ----- CPU =     24.55243 (sec) -------------
Step     =           3200 Temp     =       296.7236 TotEng   =     -4065.6083 
KinEng   =       911.8956 PotEng   =     -4977.5039 Econserve =     -2308.8412 
E_pair   =     -4992.6030 E_mol    =        15.0991 E_bond   =         4.8484 
E_angle  =         4.8988 E_dihed  =         5.3519 E_impro  =         0.0000 
E_vdwl   =       826.6072 E_coul   =     31434.3974 E_long   =    -37253.6076 
E_tail   =         0.0000 Press    =      -306.4935 Density  =         0.9785
SHAKE stats (type/ave/delta/count) on step 3300
Bond:   4   0.9572    1.71562e-06      992
Angle:  3   104.52    0.000140264      496
------------ Step           3300 ----- CPU =     25.33744 (sec) -------------
Step     =           3300 Temp     =       294.1256 TotEng   =     -4005.6516 
KinEng   =       903.9113 PotEng   =     -4909.5629 Econserve =     -2308.8622 
E_pair   =     -4925.4514 E_mol    =        15.8885 E_bond   =         4.9240 
E_angle  =         5.5597 E_dihed  =         5.4048 E_impro  =         0.0000 
E_vdwl   =       810.7766 E_coul   =     31517.3193 E_long   =    -37253.5474 
E_tail   =         0.0000 Press    =      -181.8710 Density  =         0.9782
SHAKE stats (type/ave/delta/count) on step 3400
Bond:   4   0.957201  2.24222e-06      992
Angle:  3   104.52    0.000245884      496
------------ Step           3400 ----- CPU =     26.13044 (sec) -------------
Step     =           3400 Temp     =       315.6423 TotEng   =     -3951.5154 
KinEng   =       970.0366 PotEng   =     -4921.5520 Econserve =     -2308.7774 
E_pair   =     -4936.0994 E_mol    =        14.5475 E_bond   =         3.5884 
E_angle  =         5.9871 E_dihed  =         4.9719 E_impro  =         0.0000 
E_vdwl   =       745.6576 E_coul   =     31574.2966 E_long   =    -37256.0536 
E_tail   =         0.0000 Press    =      -849.3971 Density  =         0.9778
SHAKE stats (type/ave/delta/count) on step 3500
Bond:   4   0.957202  6.84884e-06      992
Angle:  3   104.52    0.000705908      496
------------ Step           3500 ----- CPU =     26.93664 (sec) -------------
Step     =           3500 Temp     =       306.5036 TotEng   =     -3960.8670 
KinEng   =       941.9515 PotEng   =     -4902.8184 Econserve =     -2308.7440 
E_pair   =     -4918.8864 E_mol    =        16.0680 E_bond   =         4.2805 
E_angle  =         7.0927 E_dihed  =         4.6948 E_impro  =         0.0000 
E_vdwl   =       833.9520 E_coul   =     31501.0052 E_long   =    -37253.8436 
E_tail   =         0.0000 Press    =       214.0512 Density  =         0.9776
SHAKE stats (type/ave/delta/count) on step 3600
Bond:   4   0.957201  3.31134e-06      992
Angle:  3   104.52    0.000257802      496
------------ Step           3600 ----- CPU =     27.73938 (sec) -------------
Step     =           3600 Temp     =       290.2214 TotEng   =     -4021.9703 
KinEng   =       891.9128 PotEng   =     -4913.8831 Econserve =     -2308.8135 
E_pair   =     -4928.1944 E_mol    =        14.3113 E_bond   =         6.1189 
E_angle  =         4.6979 E_dihed  =         3.4945 E_impro  =         0.0000 
E_vdwl   =       810.8035 E_coul   =     31518.0257 E_long   =    -37257.0236 
E_tail   =         0.0000 Press    =      -169.8954 Density  =         0.9769
SHAKE stats (type/ave/delta/count) on step 3700
Bond:   4   0.957194  1.96265e-05      992
Angle:  3   104.52    0.00209792       496
------------ Step           3700 ----- CPU =     28.51993 (sec) -------------
Step     =           3700 Temp     =       291.8263 TotEng   =     -4096.9150 
KinEng   =       896.8451 PotEng   =     -4993.7600 Econserve =     -2308.8593 
E_pair   =     -5007.1696 E_mol    =        13.4096 E_bond   =         3.5352 
E_angle  =         5.6962 E_dihed  =         4.1782 E_impro  =         0.0000 
E_vdwl   =       849.2258 E_coul   =     31398.1644 E_long   =    -37254.5599 
E_tail   =         0.0000 Press    =        90.3236 Density  =         0.9782
SHAKE stats (type/ave/delta/count) on step 3800
Bond:   4   0.9572    2.26345e-06      992
Angle:  3   104.52    0.000176974      496
------------ Step           3800 ----- CPU =     29.31301 (sec) -------------
Step     =           3800 Temp     =       292.6381 TotEng   =     -4154.6576 
KinEng   =       899.3398 PotEng   =     -5053.9974 Econserve =     -2309.0236 
E_pair   =     -5067.6251 E_mol    =        13.6277 E_bond   =         4.7961 
E_angle  =         3.7015 E_dihed  =         5.1301 E_impro  =         0.0000 
E_vdwl   =       874.7600 E_coul   =     31312.5530 E_long   =    -37254.9381 
E_tail   =         0.0000 Press    =      -217.3675 Density  =         0.9792
SHAKE stats (type/ave/delta/count) on step 3900
Bond:   4   0.957204  1.04373e-05      992
Angle:  3   104.52    0.00114503       496
------------ Step           3900 ----- CPU =     30.15083 (sec) -------------
Step     =           3900 Temp     =       290.7421 TotEng   =     -4159.3540 
KinEng   =       893.5129 PotEng   =     -5052.8669 Econserve =     -2309.2117 
E_pair   =     -5063.8491 E_mol    =        10.9822 E_bond   =         3.9843 
E_angle  =         4.4480 E_dihed  =         2.5499 E_impro  =         0.0000 
E_vdwl   =       862.1946 E_coul   =     31330.1357 E_long   =    -37256.1794 
E_tail   =         0.0000 Press    =      -355.8493 Density  =         0.9788
SHAKE stats (type/ave/delta/count) on step 4000
Bond:   4   0.957204  1.26849e-05      992
Angle:  3   104.52    0.00143324       496
------------ Step           4000 ----- CPU =     30.98399 (sec) -------------
Step     =           4000 Temp     =       288.5449 TotEng   =     -4103.0697 
KinEng   =       886.7606 PotEng   =     -4989.8303 Econserve =     -2309.1056 
E_pair   =     -5002.3348 E_mol    =        12.5045 E_bond   =         3.6833 
E_angle  =         4.8531 E_dihed  =         3.9680 E_impro  =         0.0000 
E_vdwl   =       857.2058 E_coul   =     31394.9653 E_long   =    -37254.5059 
E_tail   =         0.0000 Press    =       168.7425 Density  =         0.9780
SHAKE stats (type/ave/delta/count) on step 4100
Bond:   4   0.957201  3.03662e-06      992
Angle:  3   104.52    0.000308034      496
------------ Step           4100 ----- CPU =     31.78848 (sec) -------------
Step     =           4100 Temp     =       309.9865 TotEng   =     -4016.4692 
KinEng   =       952.6551 PotEng   =     -4969.1243 Econserve =     -2309.0310 
E_pair   =     -4984.1939 E_mol    =        15.0696 E_bond   =         5.6269 
E_angle  =         6.2736 E_dihed  =         3.1691 E_impro  =         0.0000 
E_vdwl   =       874.4248 E_coul   =     31395.1093 E_long   =    -37253.7281 
E_tail   =         0.0000 Press    =       104.1716 Density  =         0.9768
SHAKE stats (type/ave/delta/count) on step 4200
Bond:   4   0.957205  1.46036e-05      992
Angle:  3   104.52    0.0016385        496
------------ Step           4200 ----- CPU =      32.5734 (sec) -------------
Step     =           4200 Temp     =       310.3122 TotEng   =     -3978.8713 
KinEng   =       953.6562 PotEng   =     -4932.5275 Econserve =     -2308.8813 
E_pair   =     -4949.9236 E_mol    =        17.3961 E_bond   =         6.9872 
E_angle  =         6.7738 E_dihed  =         3.6351 E_impro  =         0.0000 
E_vdwl   =       865.7383 E_coul   =     31437.5280 E_long   =    -37253.1899 
E_tail   =         0.0000 Press    =       265.3369 Density  =         0.9764
SHAKE stats (type/ave/delta/count) on step 4300
Bond:   4   0.957207  2.18116e-05      992
Angle:  3   104.52    0.00240084       496
------------ Step           4300 ----- CPU =     33.35499 (sec) -------------
Step     =           4300 Temp     =       299.4444 TotEng   =     -4024.7897 
KinEng   =       920.2571 PotEng   =     -4945.0468 Econserve =     -2309.4136 
E_pair   =     -4960.6783 E_mol    =        15.6315 E_bond   =         4.3081 
E_angle  =         5.4762 E_dihed  =         5.8472 E_impro  =         0.0000 
E_vdwl   =       839.0060 E_coul   =     31456.5187 E_long   =    -37256.2031 
E_tail   =         0.0000 Press    =       228.0296 Density  =         0.9743
SHAKE stats (type/ave/delta/count) on step 4400
Bond:   4   0.957202  7.21909e-06      992
Angle:  3   104.52    0.000750426      496
------------ Step           4400 ----- CPU =     34.13811 (sec) -------------
Step     =           4400 Temp     =       285.1036 TotEng   =     -4087.2925 
KinEng   =       876.1848 PotEng   =     -4963.4773 Econserve =     -2309.3781 
E_pair   =     -4977.7390 E_mol    =        14.2617 E_bond   =         5.4012 
E_angle  =         4.3961 E_dihed  =         4.4644 E_impro  =         0.0000 
E_vdwl   =       828.5892 E_coul   =     31446.2074 E_long   =    -37252.5355 
E_tail   =         0.0000 Press    =      -384.3421 Density  =         0.9731
SHAKE stats (type/ave/delta/count) on step 4500
Bond:   4   0.957194  1.98044e-05      992
Angle:  3   104.52    0.00220475       496
------------ Step           4500 ----- CPU =     34.91296 (sec) -------------
Step     =           4500 Temp     =       297.2879 TotEng   =     -4117.0380 
KinEng   =       913.6295 PotEng   =     -5030.6676 Econserve =     -2309.2571 
E_pair   =     -5046.7221 E_mol    =        16.0545 E_bond   =         6.2752 
E_angle  =         3.9861 E_dihed  =         5.7933 E_impro  =         0.0000 
E_vdwl   =       832.1488 E_coul   =     31374.8624 E_long   =    -37253.7333 
E_tail   =         0.0000 Press    =      -910.0803 Density  =         0.9734
SHAKE stats (type/ave/delta/count) on step 4600
Bond:   4   0.957189  3.42037e-05      992
Angle:  3   104.52    0.00386578       496
------------ Step           4600 ----- CPU =     35.69239 (sec) -------------
Step     =           4600 Temp     =       285.1273 TotEng   =     -4109.4115 
KinEng   =       876.2575 PotEng   =     -4985.6690 Econserve =     -2308.9654 
E_pair   =     -5000.2327 E_mol    =        14.5637 E_bond   =         5.4760 
E_angle  =         3.5204 E_dihed  =         5.5673 E_impro  =         0.0000 
E_vdwl   =       832.0253 E_coul   =     31421.3516 E_long   =    -37253.6096 
E_tail   =         0.0000 Press    =       -29.5579 Density  =         0.9760
SHAKE stats (type/ave/delta/count) on step 4700
Bond:   4   0.95719   3.16331e-05      992
Angle:  3   104.52    0.00354024       496
------------ Step           4700 ----- CPU =     36.48477 (sec) -------------
Step     =           4700 Temp     =       295.1658 TotEng   =     -4052.0069 
KinEng   =       907.1081 PotEng   =     -4959.1150 Econserve =     -2308.7954 
E_pair   =     -4974.5278 E_mol    =        15.4127 E_bond   =         4.5669 
E_angle  =         6.1994 E_dihed  =         4.6464 E_impro  =         0.0000 
E_vdwl   =       893.6653 E_coul   =     31385.3239 E_long   =    -37253.5170 
E_tail   =         0.0000 Press    =       470.0289 Density  =         0.9796
SHAKE stats (type/ave/delta/count) on step 4800
Bond:   4   0.95719   3.09526e-05      992
Angle:  3   104.52    0.0034516        496
------------ Step           4800 ----- CPU =     37.31811 (sec) -------------
Step     =           4800 Temp     =       312.6030 TotEng   =     -3992.5144 
KinEng   =       960.6962 PotEng   =     -4953.2106 Econserve =     -2308.9633 
E_pair   =     -4973.5972 E_mol    =        20.3866 E_bond   =         6.7244 
E_angle  =         8.5040 E_dihed  =         5.1581 E_impro  =         0.0000 
E_vdwl   =       840.8136 E_coul   =     31442.4125 E_long   =    -37256.8233 
E_tail   =         0.0000 Press    =      -199.0749 Density  =         0.9830
SHAKE stats (type/ave/delta/count) on step 4900
Bond:   4   0.957195  1.77091e-05      992
Angle:  3   104.52    0.00193414       496
------------ Step           4900 ----- CPU =     38.16366 (sec) -------------
Step     =           4900 Temp     =       307.7803 TotEng   =     -3996.0753 
KinEng   =       945.8750 PotEng   =     -4941.9504 Econserve =     -2308.9754 
E_pair   =     -4960.7627 E_mol    =        18.8123 E_bond   =         4.4770 
E_angle  =        10.9135 E_dihed  =         3.4218 E_impro  =         0.0000 
E_vdwl   =       838.8424 E_coul   =     31454.7531 E_long   =    -37254.3582 
E_tail   =         0.0000 Press    =       410.2082 Density  =         0.9853
SHAKE stats (type/ave/delta/count) on step 5000
Bond:   4   0.9572    2.75243e-06      992
Angle:  3   104.52    0.000203255      496
------------ Step           5000 ----- CPU =     38.97445 (sec) -------------
Step     =           5000 Temp     =       308.2071 TotEng   =     -4056.8292 
KinEng   =       947.1869 PotEng   =     -5004.0161 Econserve =     -2309.1858 
E_pair   =     -5022.9106 E_mol    =        18.8945 E_bond   =         7.0139 
E_angle  =         8.0335 E_dihed  =         3.8472 E_impro  =         0.0000 
E_vdwl   =       843.9416 E_coul   =     31388.8098 E_long   =    -37255.6620 
E_tail   =         0.0000 Press    =      -301.9216 Density  =         0.9858
SHAKE stats (type/ave/delta/count) on step 5100
Bond:   4   0.957196  1.19399e-05      992
Angle:  3   104.52    0.00128778       496
------------ Step           5100 ----- CPU =     39.75129 (sec) -------------
Step     =           5100 Temp     =       289.3929 TotEng   =     -4130.9385 
KinEng   =       889.3667 PotEng   =     -5020.3052 Econserve =     -2309.1392 
E_pair   =     -5034.8246 E_mol    =        14.5194 E_bond   =         5.1999 
E_angle  =         5.2208 E_dihed  =         4.0987 E_impro  =         0.0000 
E_vdwl   =       822.0327 E_coul   =     31398.6982 E_long   =    -37255.5555 
E_tail   =         0.0000 Press    =      -736.6802 Density  =         0.9865
SHAKE stats (type/ave/delta/count) on step 5200
Bond:   4   0.957195  1.52904e-05      992
Angle:  3   104.52    0.00170464       496
------------ Step           5200 ----- CPU =     40.53298 (sec) -------------
Step     =           5200 Temp     =       298.8326 TotEng   =     -4154.9857 
KinEng   =       918.3768 PotEng   =     -5073.3625 Econserve =     -2309.2259 
E_pair   =     -5092.3475 E_mol    =        18.9850 E_bond   =         6.8639 
E_angle  =         7.7258 E_dihed  =         4.3954 E_impro  =         0.0000 
E_vdwl   =       910.1660 E_coul   =     31249.6105 E_long   =    -37252.1239 
E_tail   =         0.0000 Press    =       313.0441 Density  =         0.9881
SHAKE stats (type/ave/delta/count) on step 5300
Bond:   4   0.957198  8.54605e-06      992
Angle:  3   104.52    0.000944219      496
------------ Step           5300 ----- CPU =     41.32599 (sec) -------------
Step     =           5300 Temp     =       286.7911 TotEng   =     -4171.6820 
KinEng   =       881.3707 PotEng   =     -5053.0526 Econserve =     -2309.0218 
E_pair   =     -5069.9538 E_mol    =        16.9012 E_bond   =         6.1423 
E_angle  =         6.6912 E_dihed  =         4.0677 E_impro  =         0.0000 
E_vdwl   =       916.7661 E_coul   =     31269.5255 E_long   =    -37256.2455 
E_tail   =         0.0000 Press    =       404.8642 Density  =         0.9894
SHAKE stats (type/ave/delta/count) on step 5400
Bond:   4   0.957195  1.66379e-05      992
Angle:  3   104.52    0.0018024        496
------------ Step           5400 ----- CPU =     42.09599 (sec) -------------
Step     =           5400 Temp     =       287.5634 TotEng   =     -4155.6118 
KinEng   =       883.7441 PotEng   =     -5039.3559 Econserve =     -2309.0723 
E_pair   =     -5052.0979 E_mol    =        12.7421 E_bond   =         5.7612 
E_angle  =         4.7979 E_dihed  =         2.1829 E_impro  =         0.0000 
E_vdwl   =       838.9835 E_coul   =     31363.7099 E_long   =    -37254.7913 
E_tail   =         0.0000 Press    =      -465.0092 Density  =         0.9902
SHAKE stats (type/ave/delta/count) on step 5500
Bond:   4   0.957197  1.25115e-05      992
Angle:  3   104.52    0.00131434       496
------------ Step           5500 ----- CPU =     42.91196 (sec) -------------
Step     =           5500 Temp     =       298.9593 TotEng   =     -4078.2561 
KinEng   =       918.7661 PotEng   =     -4997.0222 Econserve =     -2308.8635 
E_pair   =     -5012.3979 E_mol    =        15.3757 E_bond   =         6.4433 
E_angle  =         5.7212 E_dihed  =         3.2112 E_impro  =         0.0000 
E_vdwl   =       843.1761 E_coul   =     31396.2577 E_long   =    -37251.8317 
E_tail   =         0.0000 Press    =       132.6112 Density  =         0.9917
SHAKE stats (type/ave/delta/count) on step 5600
Bond:   4   0.957202  7.56957e-06      992
Angle:  3   104.52    0.00081927       496
------------ Step           5600 ----- CPU =     43.73032 (sec) -------------
Step     =           5600 Temp     =       307.5914 TotEng   =     -4013.3802 
KinEng   =       945.2944 PotEng   =     -4958.6746 Econserve =     -2308.8014 
E_pair   =     -4980.2548 E_mol    =        21.5802 E_bond   =         6.6797 
E_angle  =        11.4816 E_dihed  =         3.4190 E_impro  =         0.0000 
E_vdwl   =       897.3005 E_coul   =     31376.5230 E_long   =    -37254.0783 
E_tail   =         0.0000 Press    =       949.0006 Density  =         0.9921
SHAKE stats (type/ave/delta/count) on step 5700
Bond:   4   0.957205  1.48556e-05      992
Angle:  3   104.52    0.00155372       496
------------ Step           5700 ----- CPU =     44.51335 (sec) -------------
Step     =           5700 Temp     =       308.4332 TotEng   =     -4021.2980 
KinEng   =       947.8817 PotEng   =     -4969.1797 Econserve =     -2308.9424 
E_pair   =     -4984.9877 E_mol    =        15.8081 E_bond   =         6.4478 
E_angle  =         5.9656 E_dihed  =         3.3946 E_impro  =         0.0000 
E_vdwl   =       884.9455 E_coul   =     31383.9900 E_long   =    -37253.9233 
E_tail   =         0.0000 Press    =       570.2696 Density  =         0.9906
SHAKE stats (type/ave/delta/count) on step 5800
Bond:   4   0.957206  1.92112e-05      992
Angle:  3   104.52    0.00206173       496
------------ Step           5800 ----- CPU =     45.32376 (sec) -------------
Step     =           5800 Temp     =       304.4876 TotEng   =     -4091.7288 
KinEng   =       935.7558 PotEng   =     -5027.4846 Econserve =     -2308.9811 
E_pair   =     -5043.5241 E_mol    =        16.0395 E_bond   =         5.9933 
E_angle  =         6.1236 E_dihed  =         3.9226 E_impro  =         0.0000 
E_vdwl   =       899.6971 E_coul   =     31312.3465 E_long   =    -37255.5677 
E_tail   =         0.0000 Press    =       423.8451 Density  =         0.9893
SHAKE stats (type/ave/delta/count) on step 5900
Bond:   4   0.957203  8.1055e-06       992
Angle:  3   104.52    0.000873467      496
------------ Step           5900 ----- CPU =     46.12171 (sec) -------------
Step     =           5900 Temp     =       284.5131 TotEng   =     -4155.3866 
KinEng   =       874.3698 PotEng   =     -5029.7565 Econserve =     -2308.8105 
E_pair   =     -5046.5963 E_mol    =        16.8398 E_bond   =         7.1512 
E_angle  =         5.7181 E_dihed  =         3.9705 E_impro  =         0.0000 
E_vdwl   =       790.0941 E_coul   =     31419.6143 E_long   =    -37256.3046 
E_tail   =         0.0000 Press    =      -875.8619 Density  =         0.9880
SHAKE stats (type/ave/delta/count) on step 6000
Bond:   4   0.957196  1.35247e-05      992
Angle:  3   104.52    0.00149382       496
------------ Step           6000 ----- CPU =     46.91101 (sec) -------------
Step     =           6000 Temp     =       288.5583 TotEng   =     -4138.5638 
KinEng   =       886.8018 PotEng   =     -5025.3655 Econserve =     -2308.6523 
E_pair   =     -5040.7023 E_mol    =        15.3368 E_bond   =         5.3291 
E_angle  =         7.4193 E_dihed  =         2.5883 E_impro  =         0.0000 
E_vdwl   =       838.2833 E_coul   =     31377.2344 E_long   =    -37256.2200 
E_tail   =         0.0000 Press    =      -317.7542 Density  =         0.9883
SHAKE stats (type/ave/delta/count) on step 6100
Bond:   4   0.957199  4.76041e-06      992
Angle:  3   104.52    0.000465476      496
------------ Step           6100 ----- CPU =      47.7142 (sec) -------------
Step     =           6100 Temp     =       303.6980 TotEng   =     -4069.1804 
KinEng   =       933.3293 PotEng   =     -5002.5096 Econserve =     -2308.6498 
E_pair   =     -5019.3560 E_mol    =        16.8464 E_bond   =         5.7997 
E_angle  =         7.0590 E_dihed  =         3.9878 E_impro  =         0.0000 
E_vdwl   =       894.6368 E_coul   =     31339.8200 E_long   =    -37253.8128 
E_tail   =         0.0000 Press    =       703.8181 Density  =         0.9894
SHAKE stats (type/ave/delta/count) on step 6200
Bond:   4   0.957205  1.43948e-05      992
Angle:  3   104.52    0.00156803       496
------------ Step           6200 ----- CPU =     48.52221 (sec) -------------
Step     =           6200 Temp     =       310.2965 TotEng   =     -4013.0358 
KinEng   =       953.6079 PotEng   =     -4966.6438 Econserve =     -2308.7319 
E_pair   =     -4984.9818 E_mol    =        18.3380 E_bond   =         8.1074 
E_angle  =         6.5366 E_dihed  =         3.6941 E_impro  =         0.0000 
E_vdwl   =       820.4670 E_coul   =     31449.6241 E_long   =    -37255.0729 
E_tail   =         0.0000 Press    =       205.2635 Density  =         0.9888
SHAKE stats (type/ave/delta/count) on step 6300
Bond:   4   0.9572    1.68982e-06      992
Angle:  3   104.52    0.000124909      496
------------ Step           6300 ----- CPU =     49.31688 (sec) -------------
Step     =           6300 Temp     =       310.5011 TotEng   =     -3995.6174 
KinEng   =       954.2367 PotEng   =     -4949.8540 Econserve =     -2308.6269 
E_pair   =     -4970.7556 E_mol    =        20.9016 E_bond   =         6.1856 
E_angle  =        11.7115 E_dihed  =         3.0045 E_impro  =         0.0000 
E_vdwl   =       791.6317 E_coul   =     31493.2017 E_long   =    -37255.5889 
E_tail   =         0.0000 Press    =      -505.5427 Density  =         0.9877
SHAKE stats (type/ave/delta/count) on step 6400
Bond:   4   0.957197  1.08613e-05      992
Angle:  3   104.52    0.00118754       496
------------ Step           6400 ----- CPU =     50.35066 (sec) -------------
Step     =           6400 Temp     =       308.6760 TotEng   =     -4013.9633 
KinEng   =       948.6278 PotEng   =     -4962.5911 Econserve =     -2308.5729 
E_pair   =     -4983.4174 E_mol    =        20.8264 E_bond   =         9.2821 
E_angle  =         7.6837 E_dihed  =         3.8606 E_impro  =         0.0000 
E_vdwl   =       836.3016 E_coul   =     31433.8532 E_long   =    -37253.5722 
E_tail   =         0.0000 Press    =      -376.3205 Density  =         0.9882
SHAKE stats (type/ave/delta/count) on step 6500
Bond:   4   0.957204  1.1784e-05       992
Angle:  3   104.52    0.00130922       496
------------ Step           6500 ----- CPU =     51.21331 (sec) -------------
Step     =           6500 Temp     =       293.3851 TotEng   =     -4062.8529 
KinEng   =       901.6357 PotEng   =     -4964.4886 Econserve =     -2308.6089 
E_pair   =     -4989.0511 E_mol    =        24.5625 E_bond   =         9.2521 
E_angle  =         9.3011 E_dihed  =         6.0093 E_impro  =         0.0000 
E_vdwl   =       921.1098 E_coul   =     31345.5821 E_long   =    -37255.7430 
E_tail   =         0.0000 Press    =      1482.3767 Density  =         0.9886
SHAKE stats (type/ave/delta/count) on step 6600
Bond:   4   0.957203  1.05986e-05      992
Angle:  3   104.52    0.00109597       496
------------ Step           6600 ----- CPU =      51.9974 (sec) -------------
Step     =           6600 Temp     =       288.5108 TotEng   =     -4120.4292 
KinEng   =       886.6558 PotEng   =     -5007.0850 Econserve =     -2308.6556 
E_pair   =     -5024.4917 E_mol    =        17.4067 E_bond   =         7.2625 
E_angle  =         5.1618 E_dihed  =         4.9825 E_impro  =         0.0000 
E_vdwl   =       831.2762 E_coul   =     31399.9479 E_long   =    -37255.7158 
E_tail   =         0.0000 Press    =      -466.6618 Density  =         0.9870
SHAKE stats (type/ave/delta/count) on step 6700
Bond:   4   0.957194  2.10517e-05      992
Angle:  3   104.52    0.00232315       496
------------ Step           6700 ----- CPU =     52.77665 (sec) -------------
Step     =           6700 Temp     =       290.8346 TotEng   =     -4133.3799 
KinEng   =       893.7972 PotEng   =     -5027.1771 Econserve =     -2308.3052 
E_pair   =     -5046.9576 E_mol    =        19.7805 E_bond   =         7.5771 
E_angle  =         7.7873 E_dihed  =         4.4161 E_impro  =         0.0000 
E_vdwl   =       821.3116 E_coul   =     31386.6901 E_long   =    -37254.9593 
E_tail   =         0.0000 Press    =     -1264.1730 Density  =         0.9875
SHAKE stats (type/ave/delta/count) on step 6800
Bond:   4   0.957187  4.02104e-05      992
Angle:  3   104.52    0.0044858        496
------------ Step           6800 ----- CPU =     53.56446 (sec) -------------
Step     =           6800 Temp     =       281.9434 TotEng   =     -4098.3327 
KinEng   =       866.4727 PotEng   =     -4964.8054 Econserve =     -2308.0688 
E_pair   =     -4989.3514 E_mol    =        24.5460 E_bond   =         8.3643 
E_angle  =        10.3140 E_dihed  =         5.8676 E_impro  =         0.0000 
E_vdwl   =       857.3601 E_coul   =     31408.3023 E_long   =    -37255.0138 
E_tail   =         0.0000 Press    =       354.3550 Density  =         0.9904
SHAKE stats (type/ave/delta/count) on step 6900
Bond:   4   0.957191  2.83989e-05      992
Angle:  3   104.52    0.00320474       496
------------ Step           6900 ----- CPU =     54.37515 (sec) -------------
Step     =           6900 Temp     =       305.7573 TotEng   =     -4028.9940 
KinEng   =       939.6581 PotEng   =     -4968.6520 Econserve =     -2308.0031 
E_pair   =     -4985.4893 E_mol    =        16.8373 E_bond   =         6.1447 
E_angle  =         5.9250 E_dihed  =         4.7675 E_impro  =         0.0000 
E_vdwl   =       897.1364 E_coul   =     31370.4948 E_long   =    -37253.1205 
E_tail   =         0.0000 Press    =      1189.9847 Density  =         0.9943
SHAKE stats (type/ave/delta/count) on step 7000
Bond:   4   0.957202  6.08261e-06      992
Angle:  3   104.52    0.000667939      496
------------ Step           7000 ----- CPU =     55.16274 (sec) -------------
Step     =           7000 Temp     =       311.8095 TotEng   =     -4004.0703 
KinEng   =       958.2576 PotEng   =     -4962.3279 Econserve =     -2308.0699 
E_pair   =     -4985.7138 E_mol    =        23.3859 E_bond   =         9.2093 
E_angle  =         8.4193 E_dihed  =         5.7573 E_impro  =         0.0000 
E_vdwl   =       781.4940 E_coul   =     31485.6844 E_long   =    -37252.8923 
E_tail   =         0.0000 Press    =      -806.4759 Density  =         0.9952
SHAKE stats (type/ave/delta/count) on step 7100
Bond:   4   0.957205  1.53434e-05      992
Angle:  3   104.52    0.00174435       496
------------ Step           7100 ----- CPU =      55.9453 (sec) -------------
Step     =           7100 Temp     =       293.2100 TotEng   =     -4023.9491 
KinEng   =       901.0975 PotEng   =     -4925.0466 Econserve =     -2308.1516 
E_pair   =     -4940.2345 E_mol    =        15.1878 E_bond   =         5.6152 
E_angle  =         4.9665 E_dihed  =         4.6061 E_impro  =         0.0000 
E_vdwl   =       835.4778 E_coul   =     31479.1736 E_long   =    -37254.8858 
E_tail   =         0.0000 Press    =       554.4530 Density  =         0.9946
SHAKE stats (type/ave/delta/count) on step 7200
Bond:   4   0.957206  1.76065e-05      992
Angle:  3   104.52    0.00196873       496
------------ Step           7200 ----- CPU =     56.75494 (sec) -------------
Step     =           7200 Temp     =       300.6863 TotEng   =     -4054.1648 
KinEng   =       924.0738 PotEng   =     -4978.2387 Econserve =     -2308.3659 
E_pair   =     -4994.8492 E_mol    =        16.6105 E_bond   =         6.0886 
E_angle  =         5.9802 E_dihed  =         4.5417 E_impro  =         0.0000 
E_vdwl   =       838.2461 E_coul   =     31424.5091 E_long   =    -37257.6043 
E_tail   =         0.0000 Press    =       415.3537 Density  =         0.9930
SHAKE stats (type/ave/delta/count) on step 7300
Bond:   4   0.957209  2.70974e-05      992
Angle:  3   104.52    0.00310681       496
------------ Step           7300 ----- CPU =     57.54605 (sec) -------------
Step     =           7300 Temp     =       293.3869 TotEng   =     -4088.6695 
KinEng   =       901.6411 PotEng   =     -4990.3106 Econserve =     -2308.3594 
E_pair   =     -5008.4300 E_mol    =        18.1194 E_bond   =         8.3390 
E_angle  =         3.7613 E_dihed  =         6.0191 E_impro  =         0.0000 
E_vdwl   =       869.6487 E_coul   =     31374.3663 E_long   =    -37252.4449 
E_tail   =         0.0000 Press    =       -42.5785 Density  =         0.9907
SHAKE stats (type/ave/delta/count) on step 7400
Bond:   4   0.957211  3.09306e-05      992
Angle:  3   104.52    0.00353976       496
------------ Step           7400 ----- CPU =     58.37013 (sec) -------------
Step     =           7400 Temp     =       292.8483 TotEng   =     -4087.8472 
KinEng   =       899.9857 PotEng   =     -4987.8329 Econserve =     -2308.5006 
E_pair   =     -5010.1023 E_mol    =        22.2694 E_bond   =         8.5964 
E_angle  =         9.8356 E_dihed  =         3.8374 E_impro  =         0.0000 
E_vdwl   =       833.9118 E_coul   =     31412.6560 E_long   =    -37256.6701 
E_tail   =         0.0000 Press    =      -201.6010 Density  =         0.9876
SHAKE stats (type/ave/delta/count) on step 7500
Bond:   4   0.957215  4.50798e-05      992
Angle:  3   104.52    0.00518569       496
------------ Step           7500 ----- CPU =     59.21471 (sec) -------------
Step     =           7500 Temp     =       304.6103 TotEng   =     -4038.5666 
KinEng   =       936.1329 PotEng   =     -4974.6996 Econserve =     -2308.6374 
E_pair   =     -4990.7345 E_mol    =        16.0350 E_bond   =         6.1134 
E_angle  =         6.2062 E_dihed  =         3.7153 E_impro  =         0.0000 
E_vdwl   =       916.3600 E_coul   =     31348.7323 E_long   =    -37255.8268 
E_tail   =         0.0000 Press    =      1087.8046 Density  =         0.9838
SHAKE stats (type/ave/delta/count) on step 7600
Bond:   4   0.957222  6.54207e-05      992
Angle:  3   104.52    0.00756593       496
------------ Step           7600 ----- CPU =     59.98753 (sec) -------------
Step     =           7600 Temp     =       298.1860 TotEng   =     -4010.9558 
KinEng   =       916.3896 PotEng   =     -4927.3454 Econserve =     -2308.5230 
E_pair   =     -4948.4601 E_mol    =        21.1147 E_bond   =         7.7364 
E_angle  =         9.5891 E_dihed  =         3.7892 E_impro  =         0.0000 
E_vdwl   =       867.6807 E_coul   =     31441.4496 E_long   =    -37257.5904 
E_tail   =         0.0000 Press    =       270.2354 Density  =         0.9781
SHAKE stats (type/ave/delta/count) on step 7700
Bond:   4   0.957221  6.03743e-05      992
Angle:  3   104.52    0.00688684       496
------------ Step           7700 ----- CPU =     60.79279 (sec) -------------
Step     =           7700 Temp     =       303.2690 TotEng   =     -4017.3888 
KinEng   =       932.0108 PotEng   =     -4949.3996 Econserve =     -2308.9648 
E_pair   =     -4968.3290 E_mol    =        18.9294 E_bond   =         8.7236 
E_angle  =         6.2153 E_dihed  =         3.9905 E_impro  =         0.0000 
E_vdwl   =       903.1283 E_coul   =     31383.0566 E_long   =    -37254.5140 
E_tail   =         0.0000 Press    =       953.2036 Density  =         0.9718
SHAKE stats (type/ave/delta/count) on step 7800
Bond:   4   0.957215  4.33437e-05      992
Angle:  3   104.52    0.00496184       496
------------ Step           7800 ----- CPU =     61.59662 (sec) -------------
Step     =           7800 Temp     =       293.1212 TotEng   =     -4053.4859 
KinEng   =       900.8245 PotEng   =     -4954.3103 Econserve =     -2308.6504 
E_pair   =     -4975.6917 E_mol    =        21.3814 E_bond   =        10.8753 
E_angle  =         6.1210 E_dihed  =         4.3851 E_impro  =         0.0000 
E_vdwl   =       788.9079 E_coul   =     31492.1923 E_long   =    -37256.7919 
E_tail   =         0.0000 Press    =      -853.1584 Density  =         0.9663
SHAKE stats (type/ave/delta/count) on step 7900
Bond:   4   0.957205  1.48723e-05      992
Angle:  3   104.52    0.00170437       496
------------ Step           7900 ----- CPU =     62.42145 (sec) -------------
Step     =           7900 Temp     =       296.8111 TotEng   =     -4061.7274 
KinEng   =       912.1644 PotEng   =     -4973.8918 Econserve =     -2308.6832 
E_pair   =     -4990.7903 E_mol    =        16.8985 E_bond   =         7.4764 
E_angle  =         4.7704 E_dihed  =         4.6516 E_impro  =         0.0000 
E_vdwl   =       867.5867 E_coul   =     31395.9527 E_long   =    -37254.3296 
E_tail   =         0.0000 Press    =      -212.6208 Density  =         0.9634
SHAKE stats (type/ave/delta/count) on step 8000
Bond:   4   0.957201  2.9222e-06       992
Angle:  3   104.52    0.000296097      496
------------ Step           8000 ----- CPU =     63.22122 (sec) -------------
Step     =           8000 Temp     =       295.2507 TotEng   =     -4055.4594 
KinEng   =       907.3690 PotEng   =     -4962.8284 Econserve =     -2308.4104 
E_pair   =     -4985.6313 E_mol    =        22.8029 E_bond   =         8.0172 
E_angle  =         9.3877 E_dihed  =         5.3980 E_impro  =         0.0000 
E_vdwl   =       820.8439 E_coul   =     31450.9746 E_long   =    -37257.4498 
E_tail   =         0.0000 Press    =      -413.7600 Density  =         0.9626
SHAKE stats (type/ave/delta/count) on step 8100
Bond:   4   0.957194  2.03968e-05      992
Angle:  3   104.52    0.00228278       496
------------ Step           8100 ----- CPU =     63.99618 (sec) -------------
Step     =           8100 Temp     =       298.6366 TotEng   =     -4057.0144 
KinEng   =       917.7747 PotEng   =     -4974.7891 Econserve =     -2308.3790 
E_pair   =     -4994.5836 E_mol    =        19.7945 E_bond   =         9.3557 
E_angle  =         5.6156 E_dihed  =         4.8233 E_impro  =         0.0000 
E_vdwl   =       838.5046 E_coul   =     31423.1237 E_long   =    -37256.2119 
E_tail   =         0.0000 Press    =      -376.1858 Density  =         0.9637
SHAKE stats (type/ave/delta/count) on step 8200
Bond:   4   0.957194  2.18307e-05      992
Angle:  3   104.52    0.00244668       496
------------ Step           8200 ----- CPU =     64.78127 (sec) -------------
Step     =           8200 Temp     =       301.9699 TotEng   =     -4038.1133 
KinEng   =       928.0185 PotEng   =     -4966.1318 Econserve =     -2308.2152 
E_pair   =     -4983.3868 E_mol    =        17.2550 E_bond   =         8.4187 
E_angle  =         4.0667 E_dihed  =         4.7695 E_impro  =         0.0000 
E_vdwl   =       903.1912 E_coul   =     31365.8706 E_long   =    -37252.4487 
E_tail   =         0.0000 Press    =       368.4917 Density  =         0.9656
SHAKE stats (type/ave/delta/count) on step 8300
Bond:   4   0.957198  8.44e-06         992
Angle:  3   104.52    0.000875592      496
------------ Step           8300 ----- CPU =     65.58352 (sec) -------------
Step     =           8300 Temp     =       305.5418 TotEng   =     -4048.0932 
KinEng   =       938.9956 PotEng   =     -4987.0888 Econserve =     -2308.1890 
E_pair   =     -5005.7185 E_mol    =        18.6297 E_bond   =         6.3201 
E_angle  =         7.7318 E_dihed  =         4.5779 E_impro  =         0.0000 
E_vdwl   =       867.5278 E_coul   =     31379.8084 E_long   =    -37253.0547 
E_tail   =         0.0000 Press    =       220.9363 Density  =         0.9670
SHAKE stats (type/ave/delta/count) on step 8400
Bond:   4   0.957192  2.55817e-05      992
Angle:  3   104.52    0.00281826       496
------------ Step           8400 ----- CPU =     66.34951 (sec) -------------
Step     =           8400 Temp     =       296.3909 TotEng   =     -4108.9205 
KinEng   =       910.8730 PotEng   =     -5019.7935 Econserve =     -2308.4183 
E_pair   =     -5041.3696 E_mol    =        21.5761 E_bond   =        11.9934 
E_angle  =         5.3376 E_dihed  =         4.2450 E_impro  =         0.0000 
E_vdwl   =       801.4709 E_coul   =     31411.7555 E_long   =    -37254.5959 
E_tail   =         0.0000 Press    =      -862.8343 Density  =         0.9685
SHAKE stats (type/ave/delta/count) on step 8500
Bond:   4   0.957182  5.42198e-05      992
Angle:  3   104.52    0.00619304       496
------------ Step           8500 ----- CPU =     67.14373 (sec) -------------
Step     =           8500 Temp     =       289.1183 TotEng   =     -4139.0294 
KinEng   =       888.5229 PotEng   =     -5027.5523 Econserve =     -2307.6844 
E_pair   =     -5047.0210 E_mol    =        19.4687 E_bond   =         8.9494 
E_angle  =         6.6656 E_dihed  =         3.8538 E_impro  =         0.0000 
E_vdwl   =       842.7199 E_coul   =     31366.5964 E_long   =    -37256.3373 
E_tail   =         0.0000 Press    =      -762.1370 Density  =         0.9722
SHAKE stats (type/ave/delta/count) on step 8600
Bond:   4   0.957187  4.20552e-05      992
Angle:  3   104.52    0.00476679       496
------------ Step           8600 ----- CPU =     67.94807 (sec) -------------
Step     =           8600 Temp     =       295.6430 TotEng   =     -4120.3818 
KinEng   =       908.5746 PotEng   =     -5028.9565 Econserve =     -2307.9826 
E_pair   =     -5048.3124 E_mol    =        19.3560 E_bond   =         7.4198 
E_angle  =         6.5079 E_dihed  =         5.4283 E_impro  =         0.0000 
E_vdwl   =       860.4165 E_coul   =     31346.9409 E_long   =    -37255.6698 
E_tail   =         0.0000 Press    =      -170.3598 Density  =         0.9770
SHAKE stats (type/ave/delta/count) on step 8700
Bond:   4   0.957187  4.05648e-05      992
Angle:  3   104.52    0.00445845       496
------------ Step           8700 ----- CPU =     68.76564 (sec) -------------
Step     =           8700 Temp     =       297.1481 TotEng   =     -4075.8707 
KinEng   =       913.2002 PotEng   =     -4989.0709 Econserve =     -2307.8316 
E_pair   =     -5008.0926 E_mol    =        19.0217 E_bond   =         8.1193 
E_angle  =         4.5312 E_dihed  =         6.3713 E_impro  =         0.0000 
E_vdwl   =       876.3223 E_coul   =     31370.0000 E_long   =    -37254.4148 
E_tail   =         0.0000 Press    =       312.7200 Density  =         0.9811
SHAKE stats (type/ave/delta/count) on step 8800
Bond:   4   0.957195  1.79401e-05      992
Angle:  3   104.52    0.00197877       496
------------ Step           8800 ----- CPU =     69.63496 (sec) -------------
Step     =           8800 Temp     =       311.9325 TotEng   =     -4032.8591 
KinEng   =       958.6357 PotEng   =     -4991.4948 Econserve =     -2307.9719 
E_pair   =     -5015.8174 E_mol    =        24.3226 E_bond   =        12.2272 
E_angle  =         6.0619 E_dihed  =         6.0335 E_impro  =         0.0000 
E_vdwl   =       858.6124 E_coul   =     31380.0346 E_long   =    -37254.4644 
E_tail   =         0.0000 Press    =      -286.3253 Density  =         0.9840
SHAKE stats (type/ave/delta/count) on step 8900
Bond:   4   0.957196  1.32332e-05      992
Angle:  3   104.52    0.00143565       496
------------ Step           8900 ----- CPU =     70.42762 (sec) -------------
Step     =           8900 Temp     =       314.2070 TotEng   =     -4048.9412 
KinEng   =       965.6258 PotEng   =     -5014.5670 Econserve =     -2308.1261 
E_pair   =     -5037.0756 E_mol    =        22.5086 E_bond   =         6.9447 
E_angle  =         8.9506 E_dihed  =         6.6133 E_impro  =         0.0000 
E_vdwl   =       879.9499 E_coul   =     31335.4634 E_long   =    -37252.4889 
E_tail   =         0.0000 Press    =       410.7531 Density  =         0.9855
SHAKE stats (type/ave/delta/count) on step 9000
Bond:   4   0.957202  7.47959e-06      992
Angle:  3   104.52    0.000770153      496
------------ Step           9000 ----- CPU =     71.28124 (sec) -------------
Step     =           9000 Temp     =       298.9018 TotEng   =     -4111.8913 
KinEng   =       918.5895 PotEng   =     -5030.4808 Econserve =     -2308.2495 
E_pair   =     -5052.9328 E_mol    =        22.4520 E_bond   =         7.8606 
E_angle  =         9.2492 E_dihed  =         5.3421 E_impro  =         0.0000 
E_vdwl   =       896.1940 E_coul   =     31305.2442 E_long   =    -37254.3711 
E_tail   =         0.0000 Press    =       458.9093 Density  =         0.9853
SHAKE stats (type/ave/delta/count) on step 9100
Bond:   4   0.957204  1.20703e-05      992
Angle:  3   104.52    0.00135048       496
------------ Step           9100 ----- CPU =     72.06176 (sec) -------------
Step     =           9100 Temp     =       277.8705 TotEng   =     -4179.5194 
KinEng   =       853.9558 PotEng   =     -5033.4752 Econserve =     -2308.3901 
E_pair   =     -5057.8132 E_mol    =        24.3380 E_bond   =        11.8032 
E_angle  =         7.2651 E_dihed  =         5.2697 E_impro  =         0.0000 
E_vdwl   =       916.8535 E_coul   =     31280.6989 E_long   =    -37255.3656 
E_tail   =         0.0000 Press    =       287.3810 Density  =         0.9842
SHAKE stats (type/ave/delta/count) on step 9200
Bond:   4   0.957204  1.20767e-05      992
Angle:  3   104.52    0.00135474       496
------------ Step           9200 ----- CPU =     72.82486 (sec) -------------
Step     =           9200 Temp     =       289.7284 TotEng   =     -4174.9254 
KinEng   =       890.3976 PotEng   =     -5065.3231 Econserve =     -2308.5238 
E_pair   =     -5084.0141 E_mol    =        18.6910 E_bond   =         8.6790 
E_angle  =         4.7962 E_dihed  =         5.2158 E_impro  =         0.0000 
E_vdwl   =       929.4700 E_coul   =     31242.8473 E_long   =    -37256.3315 
E_tail   =         0.0000 Press    =       632.9092 Density  =         0.9834
SHAKE stats (type/ave/delta/count) on step 9300
Bond:   4   0.95721   2.9493e-05       992
Angle:  3   104.52    0.00332933       496
------------ Step           9300 ----- CPU =     73.62282 (sec) -------------
Step     =           9300 Temp     =       292.0187 TotEng   =     -4111.0619 
KinEng   =       897.4363 PotEng   =     -5008.4981 Econserve =     -2308.3154 
E_pair   =     -5028.1689 E_mol    =        19.6708 E_bond   =         8.7728 
E_angle  =         4.6769 E_dihed  =         6.2212 E_impro  =         0.0000 
E_vdwl   =       916.8007 E_coul   =     31309.9916 E_long   =    -37254.9613 
E_tail   =         0.0000 Press    =      1088.6834 Density  =         0.9812
SHAKE stats (type/ave/delta/count) on step 9400
Bond:   4   0.957214  4.15997e-05      992
Angle:  3   104.52    0.00487526       496
------------ Step           9400 ----- CPU =     74.41178 (sec) -------------
Step     =           9400 Temp     =       306.1817 TotEng   =     -4032.8225 
KinEng   =       940.9623 PotEng   =     -4973.7848 Econserve =     -2308.4531 
E_pair   =     -4996.0797 E_mol    =        22.2949 E_bond   =         8.9638 
E_angle  =         6.7659 E_dihed  =         6.5652 E_impro  =         0.0000 
E_vdwl   =       844.5934 E_coul   =     31414.8512 E_long   =    -37255.5243 
E_tail   =         0.0000 Press    =        80.9965 Density  =         0.9775
SHAKE stats (type/ave/delta/count) on step 9500
Bond:   4   0.957212  3.56282e-05      992
Angle:  3   104.52    0.00410884       496
------------ Step           9500 ----- CPU =     75.21164 (sec) -------------
Step     =           9500 Temp     =       312.7417 TotEng   =     -3988.4411 
KinEng   =       961.1225 PotEng   =     -4949.5636 Econserve =     -2308.1762 
E_pair   =     -4970.0898 E_mol    =        20.5262 E_bond   =        10.5501 
E_angle  =         5.5613 E_dihed  =         4.4148 E_impro  =         0.0000 
E_vdwl   =       840.9037 E_coul   =     31442.5626 E_long   =    -37253.5560 
E_tail   =         0.0000 Press    =       -36.7717 Density  =         0.9731
SHAKE stats (type/ave/delta/count) on step 9600
Bond:   4   0.957207  2.08107e-05      992
Angle:  3   104.52    0.0022554        496
------------ Step           9600 ----- CPU =      75.9991 (sec) -------------
Step     =           9600 Temp     =       301.0757 TotEng   =     -4030.5268 
KinEng   =       925.2705 PotEng   =     -4955.7973 Econserve =     -2307.9754 
E_pair   =     -4974.2627 E_mol    =        18.4654 E_bond   =         6.1950 
E_angle  =         5.0362 E_dihed  =         7.2343 E_impro  =         0.0000 
E_vdwl   =       794.8123 E_coul   =     31484.3971 E_long   =    -37253.4722 
E_tail   =         0.0000 Press    =      -533.4093 Density  =         0.9704
SHAKE stats (type/ave/delta/count) on step 9700
Bond:   4   0.957205  1.66443e-05      992
Angle:  3   104.52    0.00183484       496
------------ Step           9700 ----- CPU =     76.77285 (sec) -------------
Step     =           9700 Temp     =       291.5111 TotEng   =     -4098.4843 
KinEng   =       895.8763 PotEng   =     -4994.3606 Econserve =     -2308.0674 
E_pair   =     -5014.0815 E_mol    =        19.7209 E_bond   =         8.4775 
E_angle  =         4.2353 E_dihed  =         7.0081 E_impro  =         0.0000 
E_vdwl   =       917.2965 E_coul   =     31323.7665 E_long   =    -37255.1446 
E_tail   =         0.0000 Press    =       504.9959 Density  =         0.9687
SHAKE stats (type/ave/delta/count) on step 9800
Bond:   4   0.957209  2.75991e-05      992
Angle:  3   104.52    0.00313961       496
------------ Step           9800 ----- CPU =     77.54763 (sec) -------------
Step     =           9800 Temp     =       281.2027 TotEng   =     -4127.6440 
KinEng   =       864.1964 PotEng   =     -4991.8404 Econserve =     -2308.1508 
E_pair   =     -5018.9832 E_mol    =        27.1428 E_bond   =        11.4381 
E_angle  =         8.7436 E_dihed  =         6.9611 E_impro  =         0.0000 
E_vdwl   =       915.0591 E_coul   =     31318.5757 E_long   =    -37252.6181 
E_tail   =         0.0000 Press    =       262.9682 Density  =         0.9669
SHAKE stats (type/ave/delta/count) on step 9900
Bond:   4   0.957208  2.28881e-05      992
Angle:  3   104.52    0.00252818       496
------------ Step           9900 ----- CPU =     78.35491 (sec) -------------
Step     =           9900 Temp     =       292.8937 TotEng   =     -4102.4187 
KinEng   =       900.1253 PotEng   =     -5002.5440 Econserve =     -2308.2945 
E_pair   =     -5022.3383 E_mol    =        19.7943 E_bond   =         7.1744 
E_angle  =         6.2414 E_dihed  =         6.3785 E_impro  =         0.0000 
E_vdwl   =       834.3525 E_coul   =     31396.0667 E_long   =    -37252.7574 
E_tail   =         0.0000 Press    =      -409.7294 Density  =         0.9642
SHAKE stats (type/ave/delta/count) on step 10000
Bond:   4   0.957206  1.65338e-05      992
Angle:  3   104.52    0.00179529       496
------------ Step          10000 ----- CPU =     79.13119 (sec) -------------
Step     =          10000 Temp     =       289.2537 TotEng   =     -4048.9226 
KinEng   =       888.9388 PotEng   =     -4937.8615 Econserve =     -2308.2387 
E_pair   =     -4960.8445 E_mol    =        22.9830 E_bond   =        12.1818 
E_angle  =         5.1627 E_dihed  =         5.6385 E_impro  =         0.0000 
E_vdwl   =       861.4009 E_coul   =     31426.8882 E_long   =    -37249.1336 
E_tail   =         0.0000 Press    =      -128.1823 Density  =         0.9622
SHAKE stats (type/ave/delta/count) on step 10100
Bond:   4   0.957207  2.18473e-05      992
Angle:  3   104.52    0.00244338       496
------------ Step          10100 ----- CPU =     79.88283 (sec) -------------
Step     =          10100 Temp     =       307.5649 TotEng   =     -3975.2018 
KinEng   =       945.2131 PotEng   =     -4920.4149 Econserve =     -2308.1745 
E_pair   =     -4945.5350 E_mol    =        25.1202 E_bond   =         9.7788 
E_angle  =         9.0312 E_dihed  =         6.3102 E_impro  =         0.0000 
E_vdwl   =       884.9723 E_coul   =     31422.4657 E_long   =    -37252.9730 
E_tail   =         0.0000 Press    =       244.1934 Density  =         0.9606
Loop time of 79.8829 on 12 procs for 10000 steps with 1528 atoms

Performance: 10.816 ns/day, 2.219 hours/ns, 125.183 timesteps/s
597.9% CPU use with 1 MPI tasks x 12 OpenMP threads

MPI task timing breakdown:
Section |  min time  |  avg time  |  max time  |%varavg| %total
---------------------------------------------------------------
Pair    | 42.427     | 42.427     | 42.427     |   0.0 | 53.11
Bond    | 1.9121     | 1.9121     | 1.9121     |   0.0 |  2.39
Kspace  | 18.92      | 18.92      | 18.92      |   0.0 | 23.68
Neigh   | 1.2212     | 1.2212     | 1.2212     |   0.0 |  1.53
Comm    | 0.53379    | 0.53379    | 0.53379    |   0.0 |  0.67
Output  | 0.15542    | 0.15542    | 0.15542    |   0.0 |  0.19
Modify  | 14.662     | 14.662     | 14.662     |   0.0 | 18.35
Other   |            | 0.05089    |            |       |  0.06

Nlocal:           1528 ave        1528 max        1528 min
Histogram: 1 0 0 0 0 0 0 0 0 0
Nghost:          16611 ave       16611 max       16611 min
Histogram: 1 0 0 0 0 0 0 0 0 0
Neighs:    1.30321e+06 ave 1.30321e+06 max 1.30321e+06 min
Histogram: 1 0 0 0 0 0 0 0 0 0

Total # of neighbors = 1303213
Ave neighs/atom = 852.88809
Ave special neighs/atom = 2.026178
Neighbor list builds = 429
Dangerous builds = 0

## Output final values ###
Total wall time: 0:01:21
