LAMMPS data file. CGCMM style. atom_style full generated by VMD/TopoTools v1.7 on Fri Mar 24 16:53:37 -0400 2023
 1528 atoms
 1022 bonds
 516 angles
 10 dihedrals
 0 impropers
 6 atom types
 4 bond types
 3 angle types
 1 dihedral types
 0 improper types
 -1.033501 23.996500  xlo xhi
 -1.019999 24.000001  ylo yhi
 -1.028499 24.031500  zlo zhi

 Pair Coeffs

 1 0.091411 3.95 # CH2
 2 0.194746 3.75 # CH3
 3 0 0 # HEt
 4 0.185 3.02 # OEt
 5 0 0 # XHW
 6 0.1550 3.1536 # XOW

 Bond Coeffs

 1 260 1.54 # CH2-CH3
 2 386 1.43 # CH2-OEt
 3 553 0.945 # HEt-OEt
 4 0 0.9572 # XHW-XOW

 Angle Coeffs

 1 55.0455545 108.50 # CH2-OEt-HEt
 2 50.077544 109.47 # CH3-CH2-OEt
 3 0 104.52 # XHW-XOW-XHW

 Dihedral Coeffs

 1 0.833910344 -0.115933489 0.746910545 0.0 # CH3-CH2-OEt-HEt

 Masses

 1 14.02658 # CH2
 2 15.03452 # CH3
 3 1.007940 # HEt
 4 15.999400 # OEt
 5 1.007940 # XHW
 6 15.999400 # XOW

 Atoms # full

1 1 6 -1.040000 14.107000 5.923000 6.755000 # XOW MOL
2 1 5 0.520000 13.944000 6.051000 5.664000 # XHW MOL
3 1 5 0.520000 14.370000 4.866000 6.967000 # XHW MOL
4 2 6 -1.040000 6.169000 22.125000 21.169001 # XOW MOL
5 2 5 0.520000 5.398000 22.666000 20.580999 # XHW MOL
6 2 5 0.520000 5.831000 22.028999 22.221001 # XHW MOL
7 3 6 -1.040000 16.933001 11.176000 3.292000 # XOW MOL
8 3 5 0.520000 17.172001 10.107000 3.476000 # XHW MOL
9 3 5 0.520000 16.020000 11.247000 2.667000 # XHW MOL
10 4 6 -1.040000 11.517000 16.875999 19.754999 # XOW MOL
11 4 5 0.520000 10.941000 15.956000 19.525999 # XHW MOL
12 4 5 0.520000 12.529000 16.598000 20.113001 # XHW MOL
13 5 6 -1.040000 11.304000 6.609000 21.934999 # XOW MOL
14 5 5 0.520000 11.950000 7.430000 21.559999 # XHW MOL
15 5 5 0.520000 11.825000 5.639000 21.801001 # XHW MOL
16 6 6 -1.040000 8.222000 18.872999 11.780000 # XOW MOL
17 6 5 0.520000 8.787000 18.566999 10.874000 # XHW MOL
18 6 5 0.520000 8.667000 18.386000 12.673000 # XHW MOL
19 7 6 -1.040000 8.677000 7.409000 18.054001 # XOW MOL
20 7 5 0.520000 8.315000 6.414000 17.718000 # XHW MOL
21 7 5 0.520000 9.570000 7.277000 18.698999 # XHW MOL
22 8 6 -1.040000 14.290000 2.646000 2.703000 # XOW MOL
23 8 5 0.520000 14.627000 3.681000 2.488000 # XHW MOL
24 8 5 0.520000 15.094000 2.100000 3.237000 # XHW MOL
25 9 6 -1.040000 2.286000 9.021000 16.763000 # XOW MOL
26 9 5 0.520000 1.576000 9.539000 17.441999 # XHW MOL
27 9 5 0.520000 3.300000 9.032000 17.212999 # XHW MOL
28 10 6 -1.040000 22.024000 11.424000 16.027000 # XOW MOL
29 10 5 0.520000 21.000000 11.003000 16.104000 # XHW MOL
30 10 5 0.520000 21.964001 12.477000 15.685000 # XHW MOL
31 11 6 -1.040000 8.339000 15.720000 8.004000 # XOW MOL
32 11 5 0.520000 7.538000 14.982000 7.790000 # XHW MOL
33 11 5 0.520000 9.152000 15.226000 8.575000 # XHW MOL
34 12 6 -1.040000 13.592000 8.858000 -0.007000 # XOW MOL
35 12 5 0.520000 14.294000 9.700000 0.173000 # XHW MOL
36 12 5 0.520000 13.921000 7.973000 0.575000 # XHW MOL
37 13 6 -1.040000 8.401000 20.922001 0.869000 # XOW MOL
38 13 5 0.520000 8.405000 21.707001 0.083000 # XHW MOL
39 13 5 0.520000 7.782000 20.066000 0.531000 # XHW MOL
40 14 6 -1.040000 19.306999 9.193000 9.969000 # XOW MOL
41 14 5 0.520000 20.086000 8.705000 10.592000 # XHW MOL
42 14 5 0.520000 19.603001 10.241000 9.763000 # XHW MOL
43 15 6 -1.040000 9.854000 20.225000 12.861000 # XOW MOL
44 15 5 0.520000 10.955000 20.347000 12.927000 # XHW MOL
45 15 5 0.520000 9.441000 20.049000 13.875000 # XHW MOL
46 16 6 -1.040000 2.796000 14.877000 14.182000 # XOW MOL
47 16 5 0.520000 3.085000 14.414000 13.215000 # XHW MOL
48 16 5 0.520000 1.888000 15.497000 14.037000 # XHW MOL
49 17 6 -1.040000 17.837999 1.174000 4.127000 # XOW MOL
50 17 5 0.520000 16.957001 0.956000 3.486000 # XHW MOL
51 17 5 0.520000 18.216999 0.229000 4.565000 # XHW MOL
52 18 6 -1.040000 13.697000 8.815000 20.903999 # XOW MOL
53 18 5 0.520000 14.453000 8.027000 20.701000 # XHW MOL
54 18 5 0.520000 14.200000 9.802000 20.958000 # XHW MOL
55 19 6 -1.040000 10.819000 9.578000 19.162001 # XOW MOL
56 19 5 0.520000 10.379000 8.910000 19.931999 # XHW MOL
57 19 5 0.520000 10.714000 9.108000 18.163000 # XHW MOL
58 20 6 -1.040000 3.508000 21.878000 15.799000 # XOW MOL
59 20 5 0.520000 4.340000 22.554001 16.087999 # XHW MOL
60 20 5 0.520000 3.915000 21.013000 15.236000 # XHW MOL
61 21 6 -1.040000 2.970000 16.684999 2.193000 # XOW MOL
62 21 5 0.520000 3.361000 17.704000 2.398000 # XHW MOL
63 21 5 0.520000 1.920000 16.615999 2.544000 # XHW MOL
64 22 6 -1.040000 5.917000 6.823000 13.474000 # XOW MOL
65 22 5 0.520000 5.554000 6.537000 14.483000 # XHW MOL
66 22 5 0.520000 5.955000 7.929000 13.396000 # XHW MOL
67 23 6 -1.040000 2.449000 22.195000 7.346000 # XOW MOL
68 23 5 0.520000 2.455000 21.099001 7.166000 # XHW MOL
69 23 5 0.520000 1.872000 22.413000 8.268000 # XHW MOL
70 24 6 -1.040000 1.331000 3.606000 23.017000 # XOW MOL
71 24 5 0.520000 1.840000 2.619000 23.000000 # XHW MOL
72 24 5 0.520000 0.233000 3.454000 23.000000 # XHW MOL
73 25 6 -1.040000 10.799000 10.528000 12.142000 # XOW MOL
74 25 5 0.520000 10.379000 11.555000 12.174000 # XHW MOL
75 25 5 0.520000 11.787000 10.550000 11.638000 # XHW MOL
76 26 6 -1.040000 11.885000 12.968000 16.497000 # XOW MOL
77 26 5 0.520000 11.468000 11.967000 16.732000 # XHW MOL
78 26 5 0.520000 11.055000 13.671000 16.278000 # XHW MOL
79 27 6 -1.040000 13.526000 22.802000 2.298000 # XOW MOL
80 27 5 0.520000 13.744000 21.908001 1.677000 # XHW MOL
81 27 5 0.520000 14.385000 23.000000 2.972000 # XHW MOL
82 28 6 -1.040000 6.583000 11.993000 12.772000 # XOW MOL
83 28 5 0.520000 6.036000 12.945000 12.611000 # XHW MOL
84 28 5 0.520000 7.643000 12.121000 12.470000 # XHW MOL
85 29 6 -1.040000 0.547000 20.674000 8.525000 # XOW MOL
86 29 5 0.520000 0.026000 19.826000 9.017000 # XHW MOL
87 29 5 0.520000 0.004000 20.952000 7.599000 # XHW MOL
88 30 6 -1.040000 15.535000 2.308000 17.002001 # XOW MOL
89 30 5 0.520000 16.215000 2.860000 17.684000 # XHW MOL
90 30 5 0.520000 15.382000 1.279000 17.386999 # XHW MOL
91 31 6 -1.040000 9.980000 4.859000 17.386999 # XOW MOL
92 31 5 0.520000 8.997000 4.344000 17.419001 # XHW MOL
93 31 5 0.520000 10.672000 4.379000 18.108000 # XHW MOL
94 32 6 -1.040000 7.981000 17.351999 15.322000 # XOW MOL
95 32 5 0.520000 7.034000 17.669001 15.807000 # XHW MOL
96 32 5 0.520000 8.467000 18.233000 14.854000 # XHW MOL
97 33 6 -1.040000 10.519000 0.711000 9.189000 # XOW MOL
98 33 5 0.520000 10.362000 0.003000 10.031000 # XHW MOL
99 33 5 0.520000 9.543000 0.937000 8.712000 # XHW MOL
100 34 6 -1.040000 7.492000 3.238000 12.723000 # XOW MOL
101 34 5 0.520000 6.572000 3.111000 12.115000 # XHW MOL
102 34 5 0.520000 8.116000 2.324000 12.642000 # XHW MOL
103 35 6 -1.040000 12.139000 13.794000 0.823000 # XOW MOL
104 35 5 0.520000 12.891000 14.592000 0.999000 # XHW MOL
105 35 5 0.520000 11.462000 14.101000 0.000000 # XHW MOL
106 36 6 -1.040000 7.444000 4.771000 19.157000 # XOW MOL
107 36 5 0.520000 7.243000 5.795000 19.538000 # XHW MOL
108 36 5 0.520000 6.926000 4.632000 18.186001 # XHW MOL
109 37 6 -1.040000 9.562000 3.097000 22.657000 # XOW MOL
110 37 5 0.520000 8.762000 3.786000 23.000000 # XHW MOL
111 37 5 0.520000 10.510000 3.661000 22.541000 # XHW MOL
112 38 6 -1.040000 14.711000 18.525000 18.754999 # XOW MOL
113 38 5 0.520000 15.619000 19.062000 18.407000 # XHW MOL
114 38 5 0.520000 15.013000 17.612000 19.306999 # XHW MOL
115 39 6 -1.040000 2.396000 2.223000 2.488000 # XOW MOL
116 39 5 0.520000 3.316000 1.797000 2.940000 # XHW MOL
117 39 5 0.520000 2.647000 2.688000 1.512000 # XHW MOL
118 40 6 -1.040000 16.414000 17.329000 7.245000 # XOW MOL
119 40 5 0.520000 15.821000 18.263000 7.152000 # XHW MOL
120 40 5 0.520000 15.919000 16.648001 7.967000 # XHW MOL
121 41 6 -1.040000 7.082000 13.412000 21.771999 # XOW MOL
122 41 5 0.520000 6.012000 13.683000 21.889999 # XHW MOL
123 41 5 0.520000 7.181000 12.633000 20.989000 # XHW MOL
124 42 6 -1.040000 4.072000 20.410999 1.657000 # XOW MOL
125 42 5 0.520000 4.282000 21.455999 1.346000 # XHW MOL
126 42 5 0.520000 5.027000 19.853001 1.743000 # XHW MOL
127 43 6 -1.040000 12.270000 21.573999 10.372000 # XOW MOL
128 43 5 0.520000 12.206000 22.614000 9.989000 # XHW MOL
129 43 5 0.520000 11.393000 21.364000 11.017000 # XHW MOL
130 44 6 -1.040000 0.657000 7.387000 16.724001 # XOW MOL
131 44 5 0.520000 -0.000000 6.516000 16.927000 # XHW MOL
132 44 5 0.520000 0.077000 8.171000 16.195000 # XHW MOL
133 45 6 -1.040000 4.603000 19.583000 19.056999 # XOW MOL
134 45 5 0.520000 4.620000 20.542999 19.615000 # XHW MOL
135 45 5 0.520000 4.956000 18.766001 19.718000 # XHW MOL
136 46 6 -1.040000 8.209000 13.938000 18.599001 # XOW MOL
137 46 5 0.520000 7.235000 13.757000 19.099001 # XHW MOL
138 46 5 0.520000 8.358000 13.185000 17.799000 # XHW MOL
139 47 6 -1.040000 0.291000 4.561000 9.002000 # XOW MOL
140 47 5 0.520000 0.004000 4.871000 10.029000 # XHW MOL
141 47 5 0.520000 0.673000 5.440000 8.445000 # XHW MOL
142 48 6 -1.040000 13.274000 22.622000 12.019000 # XOW MOL
143 48 5 0.520000 12.313000 23.000000 12.425000 # XHW MOL
144 48 5 0.520000 14.111000 22.997999 12.643000 # XHW MOL
145 49 6 -1.040000 17.521000 6.628000 18.958000 # XOW MOL
146 49 5 0.520000 17.938999 6.972000 19.927000 # XHW MOL
147 49 5 0.520000 17.212999 5.566000 19.046000 # XHW MOL
148 50 6 -1.040000 2.399000 12.438000 8.158000 # XOW MOL
149 50 5 0.520000 2.086000 13.107000 8.987000 # XHW MOL
150 50 5 0.520000 2.267000 12.964000 7.191000 # XHW MOL
151 51 6 -1.040000 0.105000 14.227000 21.344000 # XOW MOL
152 51 5 0.520000 0.416000 15.292000 21.360001 # XHW MOL
153 51 5 0.520000 0.606000 13.709000 20.500999 # XHW MOL
154 52 6 -1.040000 6.383000 23.000000 15.042000 # XOW MOL
155 52 5 0.520000 5.572000 22.892000 14.292000 # XHW MOL
156 52 5 0.520000 6.558000 22.024000 15.539000 # XHW MOL
157 53 6 -1.040000 0.966000 10.245000 6.883000 # XOW MOL
158 53 5 0.520000 1.763000 9.807000 6.246000 # XHW MOL
159 53 5 0.520000 0.021000 9.685000 6.728000 # XHW MOL
160 54 6 -1.040000 14.946000 20.778999 12.650000 # XOW MOL
161 54 5 0.520000 14.298000 20.695999 11.752000 # XHW MOL
162 54 5 0.520000 14.968000 19.805000 13.180000 # XHW MOL
163 55 6 -1.040000 5.734000 3.301000 -0.011000 # XOW MOL
164 55 5 0.520000 4.699000 2.898000 -0.003000 # XHW MOL
165 55 5 0.520000 6.456000 2.463000 0.070000 # XHW MOL
166 56 6 -1.040000 10.192000 14.304000 6.399000 # XOW MOL
167 56 5 0.520000 9.135000 13.977000 6.300000 # XHW MOL
168 56 5 0.520000 10.246000 15.408000 6.308000 # XHW MOL
169 57 6 -1.040000 11.851000 11.752000 9.792000 # XOW MOL
170 57 5 0.520000 11.007000 12.330000 10.222000 # XHW MOL
171 57 5 0.520000 12.253000 12.289000 8.909000 # XHW MOL
172 58 6 -1.040000 1.962000 7.248000 8.329000 # XOW MOL
173 58 5 0.520000 2.431000 7.349000 9.330000 # XHW MOL
174 58 5 0.520000 1.036000 7.857000 8.292000 # XHW MOL
175 59 6 -1.040000 9.424000 12.285000 15.682000 # XOW MOL
176 59 5 0.520000 9.279000 11.621000 16.559000 # XHW MOL
177 59 5 0.520000 9.889000 11.708000 14.857000 # XHW MOL
178 60 6 -1.040000 8.086000 14.390000 13.551000 # XOW MOL
179 60 5 0.520000 7.328000 15.009000 13.027000 # XHW MOL
180 60 5 0.520000 8.656000 15.026000 14.258000 # XHW MOL
181 61 6 -1.040000 22.458000 21.882000 20.319000 # XOW MOL
182 61 5 0.520000 22.618000 22.747000 20.996000 # XHW MOL
183 61 5 0.520000 21.493999 21.393000 20.566999 # XHW MOL
184 62 6 -1.040000 20.820000 1.334000 11.622000 # XOW MOL
185 62 5 0.520000 20.816999 0.224000 11.653000 # XHW MOL
186 62 5 0.520000 21.731001 1.714000 12.128000 # XHW MOL
187 63 6 -1.040000 14.135000 8.683000 15.724000 # XOW MOL
188 63 5 0.520000 14.161000 7.715000 15.182000 # XHW MOL
189 63 5 0.520000 14.908000 8.681000 16.520000 # XHW MOL
190 64 6 -1.040000 17.959000 21.989000 11.684000 # XOW MOL
191 64 5 0.520000 17.174000 22.754999 11.510000 # XHW MOL
192 64 5 0.520000 17.851999 21.174999 10.939000 # XHW MOL
193 65 6 -1.040000 20.271000 12.659000 9.147000 # XOW MOL
194 65 5 0.520000 21.291000 12.272000 9.353000 # XHW MOL
195 65 5 0.520000 19.853001 12.143000 8.258000 # XHW MOL
196 66 6 -1.040000 6.970000 14.302000 15.443000 # XOW MOL
197 66 5 0.520000 7.513000 13.335000 15.394000 # XHW MOL
198 66 5 0.520000 5.973000 14.188000 14.969000 # XHW MOL
199 67 6 -1.040000 8.526000 7.448000 15.325000 # XOW MOL
200 67 5 0.520000 8.817000 6.407000 15.578000 # XHW MOL
201 67 5 0.520000 7.515000 7.447000 14.867000 # XHW MOL
202 68 6 -1.040000 17.035000 18.518000 23.002001 # XOW MOL
203 68 5 0.520000 17.193001 19.617001 23.004999 # XHW MOL
204 68 5 0.520000 18.018999 18.004999 22.992001 # XHW MOL
205 69 6 -1.040000 11.962000 6.200000 3.395000 # XOW MOL
206 69 5 0.520000 11.913000 7.308000 3.453000 # XHW MOL
207 69 5 0.520000 13.011000 5.886000 3.224000 # XHW MOL
208 70 6 -1.040000 17.163000 13.975000 14.225000 # XOW MOL
209 70 5 0.520000 16.862000 14.974000 13.846000 # XHW MOL
210 70 5 0.520000 16.290001 13.482000 14.699000 # XHW MOL
211 71 6 -1.040000 9.865000 18.176001 22.079000 # XOW MOL
212 71 5 0.520000 8.826000 17.930000 22.382999 # XHW MOL
213 71 5 0.520000 10.563000 17.900999 22.896000 # XHW MOL
214 72 6 -1.040000 0.496000 7.376000 10.371000 # XOW MOL
215 72 5 0.520000 0.003000 8.369000 10.326000 # XHW MOL
216 72 5 0.520000 0.008000 6.757000 11.151000 # XHW MOL
217 73 6 -1.040000 19.004999 11.397000 2.598000 # XOW MOL
218 73 5 0.520000 19.462000 12.408000 2.557000 # XHW MOL
219 73 5 0.520000 19.743000 10.645000 2.251000 # XHW MOL
220 74 6 -1.040000 3.866000 3.979000 5.554000 # XOW MOL
221 74 5 0.520000 4.296000 4.258000 4.570000 # XHW MOL
222 74 5 0.520000 3.274000 3.047000 5.447000 # XHW MOL
223 75 6 -1.040000 8.133000 8.591000 1.111000 # XOW MOL
224 75 5 0.520000 7.479000 8.597000 2.008000 # XHW MOL
225 75 5 0.520000 7.667000 9.200000 0.310000 # XHW MOL
226 76 6 -1.040000 20.395000 22.510000 18.364000 # XOW MOL
227 76 5 0.520000 19.597000 23.002001 17.768999 # XHW MOL
228 76 5 0.520000 19.975000 21.624001 18.881001 # XHW MOL
229 77 6 -1.040000 1.326000 4.104000 2.860000 # XOW MOL
230 77 5 0.520000 0.553000 3.452000 3.318000 # XHW MOL
231 77 5 0.520000 2.201000 4.171000 3.539000 # XHW MOL
232 78 6 -1.040000 18.691999 3.489000 22.514999 # XOW MOL
233 78 5 0.520000 19.738001 3.136000 22.400000 # XHW MOL
234 78 5 0.520000 17.996000 2.647000 22.319000 # XHW MOL
235 79 6 -1.040000 20.857000 9.499000 5.887000 # XOW MOL
236 79 5 0.520000 21.149000 8.459000 5.630000 # XHW MOL
237 79 5 0.520000 21.763000 10.138000 5.917000 # XHW MOL
238 80 6 -1.040000 11.091000 20.808001 21.165001 # XOW MOL
239 80 5 0.520000 12.196000 20.830999 21.061001 # XHW MOL
240 80 5 0.520000 10.817000 20.202999 22.052999 # XHW MOL
241 81 6 -1.040000 0.381000 2.239000 14.673000 # XOW MOL
242 81 5 0.520000 -0.062000 2.096000 13.665000 # XHW MOL
243 81 5 0.520000 0.351000 1.280000 15.229000 # XHW MOL
244 82 6 -1.040000 3.707000 20.624001 13.082000 # XOW MOL
245 82 5 0.520000 4.029000 19.565001 13.173000 # XHW MOL
246 82 5 0.520000 4.594000 21.285999 13.151000 # XHW MOL
247 83 6 -1.040000 4.269000 12.006000 9.238000 # XOW MOL
248 83 5 0.520000 4.490000 11.530000 10.216000 # XHW MOL
249 83 5 0.520000 4.263000 13.108000 9.357000 # XHW MOL
250 84 6 -1.040000 13.377000 5.862000 8.828000 # XOW MOL
251 84 5 0.520000 14.078000 6.665000 9.140000 # XHW MOL
252 84 5 0.520000 13.788000 4.877000 9.129000 # XHW MOL
253 85 6 -1.040000 13.192000 22.106001 22.660000 # XOW MOL
254 85 5 0.520000 12.168000 21.854000 23.007999 # XHW MOL
255 85 5 0.520000 13.150000 23.003000 22.009001 # XHW MOL
256 86 6 -1.040000 20.920000 8.281000 8.507000 # XOW MOL
257 86 5 0.520000 21.698000 8.051000 7.749000 # XHW MOL
258 86 5 0.520000 19.916000 8.136000 8.058000 # XHW MOL
259 87 6 -1.040000 19.871000 2.512000 5.922000 # XOW MOL
260 87 5 0.520000 19.240999 1.599000 5.945000 # XHW MOL
261 87 5 0.520000 20.306000 2.685000 6.927000 # XHW MOL
262 88 6 -1.040000 5.358000 12.178000 6.521000 # XOW MOL
263 88 5 0.520000 4.963000 12.880000 7.285000 # XHW MOL
264 88 5 0.520000 5.521000 11.183000 6.984000 # XHW MOL
265 89 6 -1.040000 2.744000 17.489000 -0.002000 # XOW MOL
266 89 5 0.520000 2.250000 16.496000 0.032000 # XHW MOL
267 89 5 0.520000 3.813000 17.378000 0.270000 # XHW MOL
268 90 6 -1.040000 14.847000 10.863000 16.775999 # XOW MOL
269 90 5 0.520000 13.859000 10.508000 17.136000 # XHW MOL
270 90 5 0.520000 15.630000 10.579000 17.507999 # XHW MOL
271 91 6 -1.040000 12.556000 17.389000 17.528000 # XOW MOL
272 91 5 0.520000 11.570000 16.879000 17.556000 # XHW MOL
273 91 5 0.520000 12.464000 18.337999 16.962000 # XHW MOL
274 92 6 -1.040000 5.780000 17.371000 9.251000 # XOW MOL
275 92 5 0.520000 6.175000 18.160999 9.924000 # XHW MOL
276 92 5 0.520000 4.779000 17.670000 8.879000 # XHW MOL
277 93 6 -1.040000 4.058000 6.444000 19.499001 # XOW MOL
278 93 5 0.520000 3.359000 6.002000 20.239000 # XHW MOL
279 93 5 0.520000 5.098000 6.348000 19.872999 # XHW MOL
280 94 6 -1.040000 1.854000 15.988000 5.687000 # XOW MOL
281 94 5 0.520000 2.081000 17.021000 6.025000 # XHW MOL
282 94 5 0.520000 1.499000 15.388000 6.549000 # XHW MOL
283 95 6 -1.040000 17.471001 14.871000 5.628000 # XOW MOL
284 95 5 0.520000 16.570999 15.512000 5.733000 # XHW MOL
285 95 5 0.520000 18.302000 15.470000 5.203000 # XHW MOL
286 96 6 -1.040000 16.756001 17.170000 16.868999 # XOW MOL
287 96 5 0.520000 17.641001 16.945000 16.237000 # XHW MOL
288 96 5 0.520000 16.584999 16.330999 17.575001 # XHW MOL
289 97 6 -1.040000 6.731000 11.233000 14.937000 # XOW MOL
290 97 5 0.520000 6.563000 10.180000 15.246000 # XHW MOL
291 97 5 0.520000 7.752000 11.334000 14.516000 # XHW MOL
292 98 6 -1.040000 18.889999 3.779000 18.351999 # XOW MOL
293 98 5 0.520000 18.768999 2.727000 18.018000 # XHW MOL
294 98 5 0.520000 18.445000 4.459000 17.597000 # XHW MOL
295 99 6 -1.040000 20.141001 18.275999 1.442000 # XOW MOL
296 99 5 0.520000 19.544001 17.504999 1.974000 # XHW MOL
297 99 5 0.520000 21.104000 18.426001 1.972000 # XHW MOL
298 100 6 -1.040000 17.451000 18.087000 14.370000 # XOW MOL
299 100 5 0.520000 18.539000 18.202999 14.558000 # XHW MOL
300 100 5 0.520000 16.910000 18.961000 14.787000 # XHW MOL
301 101 6 -1.040000 2.042000 2.303000 7.244000 # XOW MOL
302 101 5 0.520000 2.878000 1.598000 7.049000 # XHW MOL
303 101 5 0.520000 1.211000 2.092000 6.540000 # XHW MOL
304 102 6 -1.040000 21.781000 23.000000 10.103000 # XOW MOL
305 102 5 0.520000 21.010000 22.613001 10.801000 # XHW MOL
306 102 5 0.520000 22.657000 22.320000 10.107000 # XHW MOL
307 103 6 -1.040000 18.188999 21.445999 3.896000 # XOW MOL
308 103 5 0.520000 19.261999 21.166000 3.847000 # XHW MOL
309 103 5 0.520000 18.024000 22.121000 4.761000 # XHW MOL
310 104 6 -1.040000 14.992000 18.613001 16.193001 # XOW MOL
311 104 5 0.520000 14.629000 17.705000 16.718000 # XHW MOL
312 104 5 0.520000 14.157000 19.069000 15.623000 # XHW MOL
313 105 6 -1.040000 6.876000 1.161000 9.244000 # XOW MOL
314 105 5 0.520000 6.657000 1.653000 8.273000 # XHW MOL
315 105 5 0.520000 7.474000 0.245000 9.066000 # XHW MOL
316 106 6 -1.040000 12.733000 8.984000 4.904000 # XOW MOL
317 106 5 0.520000 13.652000 9.396000 5.371000 # XHW MOL
318 106 5 0.520000 12.082000 8.550000 5.690000 # XHW MOL
319 107 6 -1.040000 14.271000 6.922000 22.964001 # XOW MOL
320 107 5 0.520000 13.663000 7.846000 22.877001 # XHW MOL
321 107 5 0.520000 13.599000 6.041000 23.007000 # XHW MOL
322 108 6 -1.040000 13.903000 14.611000 14.719000 # XOW MOL
323 108 5 0.520000 12.845000 14.852000 14.954000 # XHW MOL
324 108 5 0.520000 14.243000 13.777000 15.367000 # XHW MOL
325 109 6 -1.040000 18.348000 12.771000 5.766000 # XOW MOL
326 109 5 0.520000 17.688000 12.056000 6.302000 # XHW MOL
327 109 5 0.520000 18.025999 12.845000 4.707000 # XHW MOL
328 110 6 -1.040000 21.385000 5.183000 19.653000 # XOW MOL
329 110 5 0.520000 21.141001 5.249000 20.733999 # XHW MOL
330 110 5 0.520000 22.312000 5.756000 19.448000 # XHW MOL
331 111 6 -1.040000 18.757000 11.666000 16.117001 # XOW MOL
332 111 5 0.520000 19.250000 12.657000 16.028000 # XHW MOL
333 111 5 0.520000 18.143999 11.640000 17.041000 # XHW MOL
334 112 6 -1.040000 10.642000 14.223000 12.966000 # XOW MOL
335 112 5 0.520000 10.094000 13.511000 13.620000 # XHW MOL
336 112 5 0.520000 9.913000 14.856000 12.419000 # XHW MOL
337 113 6 -1.040000 20.510000 18.542000 19.378000 # XOW MOL
338 113 5 0.520000 19.542999 19.056999 19.197001 # XHW MOL
339 113 5 0.520000 20.517000 17.572001 18.840000 # XHW MOL
340 114 6 -1.040000 13.342000 0.520000 18.212999 # XOW MOL
341 114 5 0.520000 13.304000 0.570000 17.105000 # XHW MOL
342 114 5 0.520000 12.438000 -0.000000 18.589001 # XHW MOL
343 115 6 -1.040000 20.341000 6.022000 8.544000 # XOW MOL
344 115 5 0.520000 19.589001 6.126000 9.354000 # XHW MOL
345 115 5 0.520000 20.929001 5.095000 8.704000 # XHW MOL
346 116 6 -1.040000 16.229000 17.615999 5.073000 # XOW MOL
347 116 5 0.520000 15.347000 18.280001 4.951000 # XHW MOL
348 116 5 0.520000 17.153000 18.187000 4.847000 # XHW MOL
349 117 6 -1.040000 6.034000 21.391001 10.984000 # XOW MOL
350 117 5 0.520000 4.957000 21.631001 10.865000 # XHW MOL
351 117 5 0.520000 6.643000 22.240999 10.614000 # XHW MOL
352 118 6 -1.040000 20.743000 16.311001 20.673000 # XOW MOL
353 118 5 0.520000 19.958000 16.987000 21.073000 # XHW MOL
354 118 5 0.520000 20.462000 15.258000 20.879000 # XHW MOL
355 119 6 -1.040000 8.449000 10.779000 5.799000 # XOW MOL
356 119 5 0.520000 8.709000 11.844000 5.970000 # XHW MOL
357 119 5 0.520000 9.309000 10.260000 5.330000 # XHW MOL
358 120 6 -1.040000 6.328000 4.863000 21.790001 # XOW MOL
359 120 5 0.520000 7.264000 5.456000 21.711000 # XHW MOL
360 120 5 0.520000 5.515000 5.509000 22.180000 # XHW MOL
361 121 6 -1.040000 12.341000 13.422000 5.810000 # XOW MOL
362 121 5 0.520000 13.368000 13.009000 5.725000 # XHW MOL
363 121 5 0.520000 12.395000 14.478000 6.147000 # XHW MOL
364 122 6 -1.040000 13.636000 23.002001 19.434000 # XOW MOL
365 122 5 0.520000 12.697000 22.624001 19.889999 # XHW MOL
366 122 5 0.520000 13.937000 22.333000 18.601999 # XHW MOL
367 123 6 -1.040000 22.264999 16.179001 10.194000 # XOW MOL
368 123 5 0.520000 21.752001 17.039000 10.675000 # XHW MOL
369 123 5 0.520000 21.948000 15.238000 10.689000 # XHW MOL
370 124 6 -1.040000 13.132000 5.930000 13.263000 # XOW MOL
371 124 5 0.520000 12.982000 7.011000 13.467000 # XHW MOL
372 124 5 0.520000 12.195000 5.380000 13.485000 # XHW MOL
373 125 6 -1.040000 9.735000 6.893000 11.892000 # XOW MOL
374 125 5 0.520000 10.484000 6.302000 12.460000 # XHW MOL
375 125 5 0.520000 9.907000 6.758000 10.805000 # XHW MOL
376 126 6 -1.040000 9.597000 18.955000 1.919000 # XOW MOL
377 126 5 0.520000 10.131000 19.919001 1.785000 # XHW MOL
378 126 5 0.520000 10.317000 18.118000 1.818000 # XHW MOL
379 127 6 -1.040000 13.684000 12.632000 17.815001 # XOW MOL
380 127 5 0.520000 14.640000 12.967000 17.358999 # XHW MOL
381 127 5 0.520000 13.459000 13.260000 18.701000 # XHW MOL
382 128 6 -1.040000 17.322001 9.233000 22.448999 # XOW MOL
383 128 5 0.520000 16.311001 9.563000 22.129000 # XHW MOL
384 128 5 0.520000 18.084000 9.675000 21.775000 # XHW MOL
385 129 6 -1.040000 20.257999 6.504000 5.155000 # XOW MOL
386 129 5 0.520000 19.219999 6.749000 4.844000 # XHW MOL
387 129 5 0.520000 20.292999 5.463000 5.535000 # XHW MOL
388 130 6 -1.040000 22.170000 11.187000 1.072000 # XOW MOL
389 130 5 0.520000 21.820999 11.693000 1.997000 # XHW MOL
390 130 5 0.520000 21.924999 10.106000 1.129000 # XHW MOL
391 131 6 -1.040000 15.965000 22.605000 16.228001 # XOW MOL
392 131 5 0.520000 16.981001 23.002001 16.434000 # XHW MOL
393 131 5 0.520000 15.253000 23.007000 16.978001 # XHW MOL
394 132 6 -1.040000 7.456000 7.617000 21.068001 # XOW MOL
395 132 5 0.520000 8.540000 7.465000 20.882000 # XHW MOL
396 132 5 0.520000 7.265000 7.609000 22.160000 # XHW MOL
397 133 6 -1.040000 1.792000 20.236000 14.102000 # XOW MOL
398 133 5 0.520000 1.728000 19.638000 13.169000 # XHW MOL
399 133 5 0.520000 1.389000 21.253000 13.916000 # XHW MOL
400 134 6 -1.040000 11.441000 21.370001 3.803000 # XOW MOL
401 134 5 0.520000 11.767000 20.507000 3.185000 # XHW MOL
402 134 5 0.520000 10.697000 21.966999 3.237000 # XHW MOL
403 135 6 -1.040000 7.825000 15.573000 22.232000 # XOW MOL
404 135 5 0.520000 8.283000 15.474000 21.226000 # XHW MOL
405 135 5 0.520000 8.625000 15.620000 22.997999 # XHW MOL
406 136 6 -1.040000 13.114000 14.616000 22.913000 # XOW MOL
407 136 5 0.520000 13.976000 13.924000 23.014999 # XHW MOL
408 136 5 0.520000 12.281000 14.092000 22.400000 # XHW MOL
409 137 6 -1.040000 7.904000 2.632000 18.261999 # XOW MOL
410 137 5 0.520000 8.780000 2.151000 17.778000 # XHW MOL
411 137 5 0.520000 6.973000 2.161000 17.888000 # XHW MOL
412 138 6 -1.040000 21.947001 17.011999 22.584999 # XOW MOL
413 138 5 0.520000 22.215000 15.981000 22.274000 # XHW MOL
414 138 5 0.520000 22.841999 17.514000 23.007000 # XHW MOL
415 139 6 -1.040000 13.818000 11.635000 22.725000 # XOW MOL
416 139 5 0.520000 12.826000 12.050000 23.000999 # XHW MOL
417 139 5 0.520000 13.857000 10.560000 22.995001 # XHW MOL
418 140 6 -1.040000 20.420000 0.763000 22.534000 # XOW MOL
419 140 5 0.520000 21.212000 0.010000 22.731001 # XHW MOL
420 140 5 0.520000 19.711000 0.362000 21.781000 # XHW MOL
421 141 6 -1.040000 2.810000 10.537000 19.844000 # XOW MOL
422 141 5 0.520000 2.391000 11.558000 19.724001 # XHW MOL
423 141 5 0.520000 2.036000 9.788000 19.576000 # XHW MOL
424 142 6 -1.040000 10.670000 22.466000 19.049999 # XOW MOL
425 142 5 0.520000 10.955000 21.393000 19.049999 # XHW MOL
426 142 5 0.520000 9.636000 22.573000 18.663000 # XHW MOL
427 143 6 -1.040000 7.583000 20.469999 9.347000 # XOW MOL
428 143 5 0.520000 8.410000 19.778999 9.079000 # XHW MOL
429 143 5 0.520000 6.645000 20.125999 8.865000 # XHW MOL
430 144 6 -1.040000 7.547000 11.697000 1.958000 # XOW MOL
431 144 5 0.520000 7.056000 12.592000 1.522000 # XHW MOL
432 144 5 0.520000 8.493000 12.000000 2.453000 # XHW MOL
433 145 6 -1.040000 11.074000 19.872999 8.030000 # XOW MOL
434 145 5 0.520000 10.744000 20.033001 9.078000 # XHW MOL
435 145 5 0.520000 12.173000 19.721001 8.009000 # XHW MOL
436 146 6 -1.040000 15.818000 7.051000 5.096000 # XOW MOL
437 146 5 0.520000 16.201000 6.009000 5.077000 # XHW MOL
438 146 5 0.520000 16.549000 7.703000 5.616000 # XHW MOL
439 147 6 -1.040000 17.900999 14.244000 18.384001 # XOW MOL
440 147 5 0.520000 17.610001 13.736000 17.441000 # XHW MOL
441 147 5 0.520000 18.981001 14.076000 18.575001 # XHW MOL
442 148 6 -1.040000 15.378000 4.201000 13.051000 # XOW MOL
443 148 5 0.520000 15.767000 5.241000 13.043000 # XHW MOL
444 148 5 0.520000 16.204000 3.496000 12.823000 # XHW MOL
445 149 6 -1.040000 18.504999 18.913000 16.743999 # XOW MOL
446 149 5 0.520000 19.327000 19.583000 17.072001 # XHW MOL
447 149 5 0.520000 17.537001 19.311001 17.111000 # XHW MOL
448 150 6 -1.040000 17.270000 15.506000 3.262000 # XOW MOL
449 150 5 0.520000 17.235001 14.572000 2.663000 # XHW MOL
450 150 5 0.520000 18.146999 16.110001 2.952000 # XHW MOL
451 151 6 -1.040000 3.382000 15.669000 7.829000 # XOW MOL
452 151 5 0.520000 3.087000 15.038000 8.694000 # XHW MOL
453 151 5 0.520000 3.018000 16.705000 7.988000 # XHW MOL
454 152 6 -1.040000 20.334000 15.534000 2.561000 # XOW MOL
455 152 5 0.520000 19.790001 14.644000 2.181000 # XHW MOL
456 152 5 0.520000 21.389999 15.261000 2.762000 # XHW MOL
457 153 6 -1.040000 12.368000 17.274000 12.037000 # XOW MOL
458 153 5 0.520000 11.947000 17.176001 11.014000 # XHW MOL
459 153 5 0.520000 13.471000 17.375000 11.972000 # XHW MOL
460 154 6 -1.040000 8.043000 13.892000 11.236000 # XOW MOL
461 154 5 0.520000 6.987000 14.161000 11.023000 # XHW MOL
462 154 5 0.520000 8.715000 14.510000 10.606000 # XHW MOL
463 155 6 -1.040000 5.065000 16.275000 13.086000 # XOW MOL
464 155 5 0.520000 5.136000 15.168000 13.040000 # XHW MOL
465 155 5 0.520000 5.993000 16.684999 13.534000 # XHW MOL
466 156 6 -1.040000 20.295000 22.136000 13.182000 # XOW MOL
467 156 5 0.520000 21.329000 22.438000 13.453000 # XHW MOL
468 156 5 0.520000 19.767000 23.000000 12.729000 # XHW MOL
469 157 6 -1.040000 8.274000 12.506000 8.020000 # XOW MOL
470 157 5 0.520000 7.266000 12.516000 7.555000 # XHW MOL
471 157 5 0.520000 8.298000 13.225000 8.863000 # XHW MOL
472 158 6 -1.040000 4.354000 0.010000 7.700000 # XOW MOL
473 158 5 0.520000 5.238000 -0.022000 8.370000 # XHW MOL
474 158 5 0.520000 4.662000 0.380000 6.700000 # XHW MOL
475 159 6 -1.040000 18.395000 9.505000 16.572001 # XOW MOL
476 159 5 0.520000 17.518999 9.484000 17.253000 # XHW MOL
477 159 5 0.520000 19.302999 9.777000 17.148001 # XHW MOL
478 160 6 -1.040000 4.452000 3.536000 14.639000 # XOW MOL
479 160 5 0.520000 3.394000 3.291000 14.405000 # XHW MOL
480 160 5 0.520000 4.539000 4.619000 14.860000 # XHW MOL
481 161 6 -1.040000 5.184000 14.795000 6.228000 # XOW MOL
482 161 5 0.520000 6.053000 15.396000 5.885000 # XHW MOL
483 161 5 0.520000 4.903000 14.070000 5.438000 # XHW MOL
484 162 6 -1.040000 8.280000 22.589001 4.954000 # XOW MOL
485 162 5 0.520000 7.426000 22.997999 4.374000 # XHW MOL
486 162 5 0.520000 8.085000 21.524000 5.195000 # XHW MOL
487 163 6 -1.040000 11.378000 6.757000 14.992000 # XOW MOL
488 163 5 0.520000 10.699000 7.373000 14.367000 # XHW MOL
489 163 5 0.520000 10.893000 5.785000 15.216000 # XHW MOL
490 164 6 -1.040000 10.712000 9.109000 9.804000 # XOW MOL
491 164 5 0.520000 10.890000 8.719000 10.828000 # XHW MOL
492 164 5 0.520000 10.175000 8.344000 9.207000 # XHW MOL
493 165 6 -1.040000 18.524000 17.875000 9.357000 # XOW MOL
494 165 5 0.520000 18.653999 18.816999 9.930000 # XHW MOL
495 165 5 0.520000 17.754000 17.247000 9.849000 # XHW MOL
496 166 6 -1.040000 15.315000 22.969999 4.965000 # XOW MOL
497 166 5 0.520000 14.988000 21.917999 4.833000 # XHW MOL
498 166 5 0.520000 16.202999 23.000000 5.628000 # XHW MOL
499 167 6 -1.040000 11.928000 16.464001 3.108000 # XOW MOL
500 167 5 0.520000 12.103000 15.464000 3.558000 # XHW MOL
501 167 5 0.520000 12.034000 16.396000 2.006000 # XHW MOL
502 168 6 -1.040000 5.213000 0.739000 0.601000 # XOW MOL
503 168 5 0.520000 4.229000 0.287000 0.360000 # XHW MOL
504 168 5 0.520000 5.664000 0.202000 1.461000 # XHW MOL
505 169 6 -1.040000 14.775000 9.048000 7.355000 # XOW MOL
506 169 5 0.520000 14.732000 7.939000 7.371000 # XHW MOL
507 169 5 0.520000 15.491000 9.377000 6.574000 # XHW MOL